
  ___ ___ ___ _ _ _  
 |   |   |_  | | | | 
 | | | | | . | | | | 
 |__ |  _|___|_____|  22.1.0
 |___|_|             

User:   gabrielbirnbaum@Gabriels-MacBook-Pro.local
Date:   Sun Jul 17 15:10:05 2022
Arch:   x86_64
Pid:    60329
Python: 3.9.13
gpaw:   /Users/gabrielbirnbaum/PycharmProjects/nanolithia/venv/lib/python3.9/site-packages/gpaw
_gpaw:  /Users/gabrielbirnbaum/PycharmProjects/nanolithia/venv/lib/python3.9/site-packages/
        _gpaw.cpython-39-darwin.so
ase:    /Users/gabrielbirnbaum/PycharmProjects/nanolithia/venv/lib/python3.9/site-packages/ase (version 3.22.1)
numpy:  /Users/gabrielbirnbaum/PycharmProjects/nanolithia/venv/lib/python3.9/site-packages/numpy (version 1.23.0)
scipy:  /Users/gabrielbirnbaum/PycharmProjects/nanolithia/venv/lib/python3.9/site-packages/scipy (version 1.8.1)
libxc:  5.2.3
units:  Angstrom and eV
cores: 1
OpenMP: False
OMP_NUM_THREADS: 1

Input parameters:
  kpts: {size: (9, 9, 9)}
  mode: {ecut: 500.0,
         name: pw}
  nbands: -10
  xc: PBE

System changes: positions, numbers, cell, pbc, initial_charges, initial_magmoms 

Initialize ...

Li-setup:
  name: Lithium
  id: 830b4218f175192f93f959cfc0aad614
  Z: 3.0
  valence: 1
  core: 2
  charge: 0.0
  file: /Users/gabrielbirnbaum/dft_learning/DIR/gpaw-setups-0.9.20000/Li.PBE.gz
  compensation charges: gauss, rc=0.33, lmax=2
  cutoffs: 1.91(filt), 2.55(core),
  valence states:
                energy  radius
    2s(1.00)    -2.874   1.058
    2p(0.00)    -1.090   1.058
    *s          24.337   1.058

  Using partial waves for Li as LCAO basis

Reference energy: -405.575640

Spin-paired calculation

Convergence criteria:
 Maximum [total energy] change in last 3 cyles: 0.0005 eV / electron
 Maximum integral of absolute [dens]ity change: 0.0001 electrons / valence electron
 Maximum integral of absolute [eigenst]ate change: 4e-08 eV^2 / valence electron
 Maximum number of scf [iter]ations: 333
 (Square brackets indicate name in SCF output, whereas a 'c' in
 the SCF output indicates the quantity has converged.)

Symmetries present (total): 48

  ( 1  0  0)  ( 1  0  0)  ( 1  0  0)  ( 1  0  0)  ( 1  0  0)  ( 1  0  0)
  ( 0  1  0)  ( 0  1  0)  ( 0  0  1)  ( 0  0  1)  ( 0  0 -1)  ( 0  0 -1)
  ( 0  0  1)  ( 0  0 -1)  ( 0  1  0)  ( 0 -1  0)  ( 0  1  0)  ( 0 -1  0)

  ( 1  0  0)  ( 1  0  0)  ( 0  1  0)  ( 0  1  0)  ( 0  1  0)  ( 0  1  0)
  ( 0 -1  0)  ( 0 -1  0)  ( 1  0  0)  ( 1  0  0)  ( 0  0  1)  ( 0  0  1)
  ( 0  0  1)  ( 0  0 -1)  ( 0  0  1)  ( 0  0 -1)  ( 1  0  0)  (-1  0  0)

  ( 0  1  0)  ( 0  1  0)  ( 0  1  0)  ( 0  1  0)  ( 0  0  1)  ( 0  0  1)
  ( 0  0 -1)  ( 0  0 -1)  (-1  0  0)  (-1  0  0)  ( 1  0  0)  ( 1  0  0)
  ( 1  0  0)  (-1  0  0)  ( 0  0  1)  ( 0  0 -1)  ( 0  1  0)  ( 0 -1  0)

  ( 0  0  1)  ( 0  0  1)  ( 0  0  1)  ( 0  0  1)  ( 0  0  1)  ( 0  0  1)
  ( 0  1  0)  ( 0  1  0)  ( 0 -1  0)  ( 0 -1  0)  (-1  0  0)  (-1  0  0)
  ( 1  0  0)  (-1  0  0)  ( 1  0  0)  (-1  0  0)  ( 0  1  0)  ( 0 -1  0)

  ( 0  0 -1)  ( 0  0 -1)  ( 0  0 -1)  ( 0  0 -1)  ( 0  0 -1)  ( 0  0 -1)
  ( 1  0  0)  ( 1  0  0)  ( 0  1  0)  ( 0  1  0)  ( 0 -1  0)  ( 0 -1  0)
  ( 0  1  0)  ( 0 -1  0)  ( 1  0  0)  (-1  0  0)  ( 1  0  0)  (-1  0  0)

  ( 0  0 -1)  ( 0  0 -1)  ( 0 -1  0)  ( 0 -1  0)  ( 0 -1  0)  ( 0 -1  0)
  (-1  0  0)  (-1  0  0)  ( 1  0  0)  ( 1  0  0)  ( 0  0  1)  ( 0  0  1)
  ( 0  1  0)  ( 0 -1  0)  ( 0  0  1)  ( 0  0 -1)  ( 1  0  0)  (-1  0  0)

  ( 0 -1  0)  ( 0 -1  0)  ( 0 -1  0)  ( 0 -1  0)  (-1  0  0)  (-1  0  0)
  ( 0  0 -1)  ( 0  0 -1)  (-1  0  0)  (-1  0  0)  ( 0  1  0)  ( 0  1  0)
  ( 1  0  0)  (-1  0  0)  ( 0  0  1)  ( 0  0 -1)  ( 0  0  1)  ( 0  0 -1)

  (-1  0  0)  (-1  0  0)  (-1  0  0)  (-1  0  0)  (-1  0  0)  (-1  0  0)
  ( 0  0  1)  ( 0  0  1)  ( 0  0 -1)  ( 0  0 -1)  ( 0 -1  0)  ( 0 -1  0)
  ( 0  1  0)  ( 0 -1  0)  ( 0  1  0)  ( 0 -1  0)  ( 0  0  1)  ( 0  0 -1)

729 k-points: 9 x 9 x 9 Monkhorst-Pack grid
35 k-points in the irreducible part of the Brillouin zone
       k-points in crystal coordinates                weights
   0:     0.00000000    0.00000000    0.00000000          1/729
   1:     0.11111111    0.00000000    0.00000000          6/729
   2:     0.11111111    0.11111111    0.00000000         12/729
   3:     0.11111111    0.11111111    0.11111111          8/729
   4:     0.22222222    0.00000000    0.00000000          6/729
   5:     0.22222222    0.11111111    0.00000000         24/729
   6:     0.22222222    0.11111111    0.11111111         24/729
   7:     0.22222222    0.22222222    0.00000000         12/729
   8:     0.22222222    0.22222222    0.11111111         24/729
   9:     0.22222222    0.22222222    0.22222222          8/729
          ...
  34:     0.44444444    0.44444444    0.44444444          8/729

Wave functions: Plane wave expansion
  Cutoff energy: 500.000 eV
  Number of coefficients (min, max): 1045, 1116
  Pulay-stress correction: 0.000000 eV/Ang^3 (de/decut=0.000000)
  Using Numpy's FFT
  ScaLapack parameters: grid=1x1, blocksize=None
  Wavefunction extrapolation:
    Improved wavefunction reuse through dual PAW basis 

Occupation numbers: Fermi-Dirac: width=0.1000 eV
 

Eigensolver
   Davidson(niter=2) 

Densities:
  Coarse grid: 20*20*20 grid
  Fine grid: 40*40*40 grid
  Total Charge: 0.000000 

Density mixing:
  Method: separate
  Backend: pulay
  Linear mixing parameter: 0.05
  Mixing with 5 old densities
  Damping of long wave oscillations: 50 

Hamiltonian:
  XC and Coulomb potentials evaluated on a 40*40*40 grid
  Using the PBE Exchange-Correlation functional
  External potential:
    NoExternalPotential
 

XC parameters: PBE with 2 nearest neighbor stencil

Memory estimate:
  Process memory now: 276.50 MiB
  Calculator: 14.28 MiB
    Density: 3.36 MiB
      Arrays: 1.59 MiB
      Localized functions: 1.16 MiB
      Mixer: 0.61 MiB
    Hamiltonian: 1.06 MiB
      Arrays: 1.04 MiB
      XC: 0.00 MiB
      Poisson: 0.00 MiB
      vbar: 0.02 MiB
    Wavefunctions: 9.86 MiB
      Arrays psit_nG: 6.56 MiB
      Eigensolver: 0.29 MiB
      Projections: 0.06 MiB
      Projectors: 2.05 MiB
      PW-descriptor: 0.90 MiB

Total number of cores used: 1

Number of atoms: 2
Number of atomic orbitals: 8
Number of bands in calculation: 11
Number of valence electrons: 2
Bands to converge: occupied

... initialized

Initializing position-dependent things.

Density initialized from atomic densities
Creating initial wave functions:
  8 bands from LCAO basis set
  3 bands from random numbers

   .--------.  
  /|        |  
 * |        |  
 | |   Li   |  
 | .--------.  
 |/        /   
 Li-------*    

Positions:
   0 Li     0.000000    0.000000    0.000000    ( 0.0000,  0.0000,  0.0000)
   1 Li     1.755000    1.755000    1.755000    ( 0.0000,  0.0000,  0.0000)

Unit cell:
           periodic     x           y           z      points  spacing
  1. axis:    yes    3.510000    0.000000    0.000000    20     0.1755
  2. axis:    yes    0.000000    3.510000    0.000000    20     0.1755
  3. axis:    yes    0.000000    0.000000    3.510000    20     0.1755

  Lengths:   3.510000   3.510000   3.510000
  Angles:   90.000000  90.000000  90.000000

Effective grid spacing dv^(1/3) = 0.1755

     iter     time        total  log10-change:
                         energy  eigst   dens
iter:   1 15:10:07    -3.815054
iter:   2 15:10:09    -3.813669  -2.06  -1.27
iter:   3 15:10:11    -3.965080  -2.12  -1.27
iter:   4 15:10:12    -3.794861  -2.29  -0.97
iter:   5 15:10:14    -3.794601  -4.31  -2.89
iter:   6 15:10:16    -3.794563c -5.84  -2.41
iter:   7 15:10:17    -3.794517c -5.33  -2.75
iter:   8 15:10:19    -3.794517c -6.79  -3.41
iter:   9 15:10:20    -3.794517c -8.09c -3.84
iter:  10 15:10:22    -3.794517c -9.05c -3.87
iter:  11 15:10:23    -3.794517c -10.87c -4.58c

Converged after 11 iterations.

Dipole moment: (-0.000000, -0.000000, -0.000000) |e|*Ang

Energy contributions relative to reference atoms: (reference = -405.575640)

Kinetic:         +3.075890
Potential:       -2.755369
External:        +0.000000
XC:              -4.084773
Entropy (-ST):   -0.032526
Local:           -0.014002
--------------------------
Free energy:     -3.810779
Extrapolated:    -3.794517

Showing only first 2 kpts
 Kpt  Band  Eigenvalues  Occupancy
  0     0     -3.30264    2.00000
  0     1      5.48321    0.00000
  0     2      5.48321    0.00000

  1     0     -3.18809    2.00000
  1     1      4.21883    0.00000
  1     2      5.62880    0.00000


Fermi level: 0.16034

No gap
Stress tensor:
     0.004753     0.000000     0.000000
     0.000000     0.004753     0.000000
     0.000000     0.000000     0.004753
System changes: cell, positions 

Initialize ...

Li-setup:
  name: Lithium
  id: 830b4218f175192f93f959cfc0aad614
  Z: 3.0
  valence: 1
  core: 2
  charge: 0.0
  file: /Users/gabrielbirnbaum/dft_learning/DIR/gpaw-setups-0.9.20000/Li.PBE.gz
  compensation charges: gauss, rc=0.33, lmax=2
  cutoffs: 1.91(filt), 2.55(core),
  valence states:
                energy  radius
    2s(1.00)    -2.874   1.058
    2p(0.00)    -1.090   1.058
    *s          24.337   1.058

  Using partial waves for Li as LCAO basis

Reference energy: -405.575640

Spin-paired calculation

Convergence criteria:
 Maximum [total energy] change in last 3 cyles: 0.0005 eV / electron
 Maximum integral of absolute [dens]ity change: 0.0001 electrons / valence electron
 Maximum integral of absolute [eigenst]ate change: 4e-08 eV^2 / valence electron
 Maximum number of scf [iter]ations: 333
 (Square brackets indicate name in SCF output, whereas a 'c' in
 the SCF output indicates the quantity has converged.)

Symmetries present (total): 48

  ( 1  0  0)  ( 1  0  0)  ( 1  0  0)  ( 1  0  0)  ( 1  0  0)  ( 1  0  0)
  ( 0  1  0)  ( 0  1  0)  ( 0  0  1)  ( 0  0  1)  ( 0  0 -1)  ( 0  0 -1)
  ( 0  0  1)  ( 0  0 -1)  ( 0  1  0)  ( 0 -1  0)  ( 0  1  0)  ( 0 -1  0)

  ( 1  0  0)  ( 1  0  0)  ( 0  1  0)  ( 0  1  0)  ( 0  1  0)  ( 0  1  0)
  ( 0 -1  0)  ( 0 -1  0)  ( 1  0  0)  ( 1  0  0)  ( 0  0  1)  ( 0  0  1)
  ( 0  0  1)  ( 0  0 -1)  ( 0  0  1)  ( 0  0 -1)  ( 1  0  0)  (-1  0  0)

  ( 0  1  0)  ( 0  1  0)  ( 0  1  0)  ( 0  1  0)  ( 0  0  1)  ( 0  0  1)
  ( 0  0 -1)  ( 0  0 -1)  (-1  0  0)  (-1  0  0)  ( 1  0  0)  ( 1  0  0)
  ( 1  0  0)  (-1  0  0)  ( 0  0  1)  ( 0  0 -1)  ( 0  1  0)  ( 0 -1  0)

  ( 0  0  1)  ( 0  0  1)  ( 0  0  1)  ( 0  0  1)  ( 0  0  1)  ( 0  0  1)
  ( 0  1  0)  ( 0  1  0)  ( 0 -1  0)  ( 0 -1  0)  (-1  0  0)  (-1  0  0)
  ( 1  0  0)  (-1  0  0)  ( 1  0  0)  (-1  0  0)  ( 0  1  0)  ( 0 -1  0)

  ( 0  0 -1)  ( 0  0 -1)  ( 0  0 -1)  ( 0  0 -1)  ( 0  0 -1)  ( 0  0 -1)
  ( 1  0  0)  ( 1  0  0)  ( 0  1  0)  ( 0  1  0)  ( 0 -1  0)  ( 0 -1  0)
  ( 0  1  0)  ( 0 -1  0)  ( 1  0  0)  (-1  0  0)  ( 1  0  0)  (-1  0  0)

  ( 0  0 -1)  ( 0  0 -1)  ( 0 -1  0)  ( 0 -1  0)  ( 0 -1  0)  ( 0 -1  0)
  (-1  0  0)  (-1  0  0)  ( 1  0  0)  ( 1  0  0)  ( 0  0  1)  ( 0  0  1)
  ( 0  1  0)  ( 0 -1  0)  ( 0  0  1)  ( 0  0 -1)  ( 1  0  0)  (-1  0  0)

  ( 0 -1  0)  ( 0 -1  0)  ( 0 -1  0)  ( 0 -1  0)  (-1  0  0)  (-1  0  0)
  ( 0  0 -1)  ( 0  0 -1)  (-1  0  0)  (-1  0  0)  ( 0  1  0)  ( 0  1  0)
  ( 1  0  0)  (-1  0  0)  ( 0  0  1)  ( 0  0 -1)  ( 0  0  1)  ( 0  0 -1)

  (-1  0  0)  (-1  0  0)  (-1  0  0)  (-1  0  0)  (-1  0  0)  (-1  0  0)
  ( 0  0  1)  ( 0  0  1)  ( 0  0 -1)  ( 0  0 -1)  ( 0 -1  0)  ( 0 -1  0)
  ( 0  1  0)  ( 0 -1  0)  ( 0  1  0)  ( 0 -1  0)  ( 0  0  1)  ( 0  0 -1)

729 k-points: 9 x 9 x 9 Monkhorst-Pack grid
35 k-points in the irreducible part of the Brillouin zone
       k-points in crystal coordinates                weights
   0:     0.00000000    0.00000000    0.00000000          1/729
   1:     0.11111111    0.00000000    0.00000000          6/729
   2:     0.11111111    0.11111111    0.00000000         12/729
   3:     0.11111111    0.11111111    0.11111111          8/729
   4:     0.22222222    0.00000000    0.00000000          6/729
   5:     0.22222222    0.11111111    0.00000000         24/729
   6:     0.22222222    0.11111111    0.11111111         24/729
   7:     0.22222222    0.22222222    0.00000000         12/729
   8:     0.22222222    0.22222222    0.11111111         24/729
   9:     0.22222222    0.22222222    0.22222222          8/729
          ...
  34:     0.44444444    0.44444444    0.44444444          8/729

Wave functions: Plane wave expansion
  Cutoff energy: 500.000 eV
  Number of coefficients (min, max): 1045, 1101
  Pulay-stress correction: 0.000000 eV/Ang^3 (de/decut=0.000000)
  Using Numpy's FFT
  ScaLapack parameters: grid=1x1, blocksize=None
  Wavefunction extrapolation:
    Improved wavefunction reuse through dual PAW basis 

Occupation numbers: Fermi-Dirac: width=0.1000 eV
 

Eigensolver
   Davidson(niter=2) 

Densities:
  Coarse grid: 20*20*20 grid
  Fine grid: 40*40*40 grid
  Total Charge: 0.000000 

Density mixing:
  Method: separate
  Backend: pulay
  Linear mixing parameter: 0.05
  Mixing with 5 old densities
  Damping of long wave oscillations: 50 

Hamiltonian:
  XC and Coulomb potentials evaluated on a 40*40*40 grid
  Using the PBE Exchange-Correlation functional
  External potential:
    NoExternalPotential
 

XC parameters: PBE with 2 nearest neighbor stencil

Memory estimate:
  Process memory now: 280.45 MiB
  Calculator: 14.15 MiB
    Density: 3.35 MiB
      Arrays: 1.59 MiB
      Localized functions: 1.15 MiB
      Mixer: 0.61 MiB
    Hamiltonian: 1.06 MiB
      Arrays: 1.04 MiB
      XC: 0.00 MiB
      Poisson: 0.00 MiB
      vbar: 0.02 MiB
    Wavefunctions: 9.74 MiB
      Arrays psit_nG: 6.47 MiB
      Eigensolver: 0.29 MiB
      Projections: 0.06 MiB
      Projectors: 2.03 MiB
      PW-descriptor: 0.89 MiB

Total number of cores used: 1

Number of atoms: 2
Number of atomic orbitals: 8
Number of bands in calculation: 11
Number of valence electrons: 2
Bands to converge: occupied

... initialized

Initializing position-dependent things.

Density initialized from atomic densities
Creating initial wave functions:
  8 bands from LCAO basis set
  3 bands from random numbers

   .--------.  
  /|        |  
 * |        |  
 | |   Li   |  
 | .--------.  
 |/        /   
 Li-------*    

Positions:
   0 Li     0.000000    0.000000    0.000000    ( 0.0000,  0.0000,  0.0000)
   1 Li     1.749847    1.749847    1.749847    ( 0.0000,  0.0000,  0.0000)

Unit cell:
           periodic     x           y           z      points  spacing
  1. axis:    yes    3.499694    0.000000    0.000000    20     0.1750
  2. axis:    yes    0.000000    3.499694    0.000000    20     0.1750
  3. axis:    yes    0.000000    0.000000    3.499694    20     0.1750

  Lengths:   3.499694   3.499694   3.499694
  Angles:   90.000000  90.000000  90.000000

Effective grid spacing dv^(1/3) = 0.1750

     iter     time        total  log10-change:
                         energy  eigst   dens
iter:   1 15:10:26    -3.817603
iter:   2 15:10:27    -3.816074  -2.06  -1.27
iter:   3 15:10:29    -3.969993  -2.11  -1.27
iter:   4 15:10:31    -3.796542  -2.29  -0.97
iter:   5 15:10:32    -3.796308  -4.32  -2.94
iter:   6 15:10:34    -3.796272c -5.85  -2.41
iter:   7 15:10:35    -3.796221c -5.25  -2.74
iter:   8 15:10:37    -3.796221c -6.72  -3.43
iter:   9 15:10:38    -3.796221c -8.05c -3.89
iter:  10 15:10:40    -3.796221c -8.96c -3.87
iter:  11 15:10:41    -3.796221c -10.92c -4.50c

Converged after 11 iterations.

Dipole moment: (-0.000000, -0.000000, -0.000000) |e|*Ang

Energy contributions relative to reference atoms: (reference = -405.575640)

Kinetic:         +3.179765
Potential:       -2.824491
External:        +0.000000
XC:              -4.121041
Entropy (-ST):   -0.032483
Local:           -0.014212
--------------------------
Free energy:     -3.812462
Extrapolated:    -3.796221

Showing only first 2 kpts
 Kpt  Band  Eigenvalues  Occupancy
  0     0     -3.29325    2.00000
  0     1      5.53523    0.00000
  0     2      5.53523    0.00000

  1     0     -3.17831    2.00000
  1     1      4.26255    0.00000
  1     2      5.68172    0.00000


Fermi level: 0.18157

No gap
Stress tensor:
     0.004115    -0.000000     0.000000
    -0.000000     0.004115     0.000000
     0.000000     0.000000     0.004115
System changes: cell, positions 

Initialize ...

Li-setup:
  name: Lithium
  id: 830b4218f175192f93f959cfc0aad614
  Z: 3.0
  valence: 1
  core: 2
  charge: 0.0
  file: /Users/gabrielbirnbaum/dft_learning/DIR/gpaw-setups-0.9.20000/Li.PBE.gz
  compensation charges: gauss, rc=0.33, lmax=2
  cutoffs: 1.91(filt), 2.55(core),
  valence states:
                energy  radius
    2s(1.00)    -2.874   1.058
    2p(0.00)    -1.090   1.058
    *s          24.337   1.058

  Using partial waves for Li as LCAO basis

Reference energy: -405.575640

Spin-paired calculation

Convergence criteria:
 Maximum [total energy] change in last 3 cyles: 0.0005 eV / electron
 Maximum integral of absolute [dens]ity change: 0.0001 electrons / valence electron
 Maximum integral of absolute [eigenst]ate change: 4e-08 eV^2 / valence electron
 Maximum number of scf [iter]ations: 333
 (Square brackets indicate name in SCF output, whereas a 'c' in
 the SCF output indicates the quantity has converged.)

Symmetries present (total): 48

  ( 1  0  0)  ( 1  0  0)  ( 1  0  0)  ( 1  0  0)  ( 1  0  0)  ( 1  0  0)
  ( 0  1  0)  ( 0  1  0)  ( 0  0  1)  ( 0  0  1)  ( 0  0 -1)  ( 0  0 -1)
  ( 0  0  1)  ( 0  0 -1)  ( 0  1  0)  ( 0 -1  0)  ( 0  1  0)  ( 0 -1  0)

  ( 1  0  0)  ( 1  0  0)  ( 0  1  0)  ( 0  1  0)  ( 0  1  0)  ( 0  1  0)
  ( 0 -1  0)  ( 0 -1  0)  ( 1  0  0)  ( 1  0  0)  ( 0  0  1)  ( 0  0  1)
  ( 0  0  1)  ( 0  0 -1)  ( 0  0  1)  ( 0  0 -1)  ( 1  0  0)  (-1  0  0)

  ( 0  1  0)  ( 0  1  0)  ( 0  1  0)  ( 0  1  0)  ( 0  0  1)  ( 0  0  1)
  ( 0  0 -1)  ( 0  0 -1)  (-1  0  0)  (-1  0  0)  ( 1  0  0)  ( 1  0  0)
  ( 1  0  0)  (-1  0  0)  ( 0  0  1)  ( 0  0 -1)  ( 0  1  0)  ( 0 -1  0)

  ( 0  0  1)  ( 0  0  1)  ( 0  0  1)  ( 0  0  1)  ( 0  0  1)  ( 0  0  1)
  ( 0  1  0)  ( 0  1  0)  ( 0 -1  0)  ( 0 -1  0)  (-1  0  0)  (-1  0  0)
  ( 1  0  0)  (-1  0  0)  ( 1  0  0)  (-1  0  0)  ( 0  1  0)  ( 0 -1  0)

  ( 0  0 -1)  ( 0  0 -1)  ( 0  0 -1)  ( 0  0 -1)  ( 0  0 -1)  ( 0  0 -1)
  ( 1  0  0)  ( 1  0  0)  ( 0  1  0)  ( 0  1  0)  ( 0 -1  0)  ( 0 -1  0)
  ( 0  1  0)  ( 0 -1  0)  ( 1  0  0)  (-1  0  0)  ( 1  0  0)  (-1  0  0)

  ( 0  0 -1)  ( 0  0 -1)  ( 0 -1  0)  ( 0 -1  0)  ( 0 -1  0)  ( 0 -1  0)
  (-1  0  0)  (-1  0  0)  ( 1  0  0)  ( 1  0  0)  ( 0  0  1)  ( 0  0  1)
  ( 0  1  0)  ( 0 -1  0)  ( 0  0  1)  ( 0  0 -1)  ( 1  0  0)  (-1  0  0)

  ( 0 -1  0)  ( 0 -1  0)  ( 0 -1  0)  ( 0 -1  0)  (-1  0  0)  (-1  0  0)
  ( 0  0 -1)  ( 0  0 -1)  (-1  0  0)  (-1  0  0)  ( 0  1  0)  ( 0  1  0)
  ( 1  0  0)  (-1  0  0)  ( 0  0  1)  ( 0  0 -1)  ( 0  0  1)  ( 0  0 -1)

  (-1  0  0)  (-1  0  0)  (-1  0  0)  (-1  0  0)  (-1  0  0)  (-1  0  0)
  ( 0  0  1)  ( 0  0  1)  ( 0  0 -1)  ( 0  0 -1)  ( 0 -1  0)  ( 0 -1  0)
  ( 0  1  0)  ( 0 -1  0)  ( 0  1  0)  ( 0 -1  0)  ( 0  0  1)  ( 0  0 -1)

729 k-points: 9 x 9 x 9 Monkhorst-Pack grid
35 k-points in the irreducible part of the Brillouin zone
       k-points in crystal coordinates                weights
   0:     0.00000000    0.00000000    0.00000000          1/729
   1:     0.11111111    0.00000000    0.00000000          6/729
   2:     0.11111111    0.11111111    0.00000000         12/729
   3:     0.11111111    0.11111111    0.11111111          8/729
   4:     0.22222222    0.00000000    0.00000000          6/729
   5:     0.22222222    0.11111111    0.00000000         24/729
   6:     0.22222222    0.11111111    0.11111111         24/729
   7:     0.22222222    0.22222222    0.00000000         12/729
   8:     0.22222222    0.22222222    0.11111111         24/729
   9:     0.22222222    0.22222222    0.22222222          8/729
          ...
  34:     0.44444444    0.44444444    0.44444444          8/729

Wave functions: Plane wave expansion
  Cutoff energy: 500.000 eV
  Number of coefficients (min, max): 1009, 1045
  Pulay-stress correction: 0.000000 eV/Ang^3 (de/decut=0.000000)
  Using Numpy's FFT
  ScaLapack parameters: grid=1x1, blocksize=None
  Wavefunction extrapolation:
    Improved wavefunction reuse through dual PAW basis 

Occupation numbers: Fermi-Dirac: width=0.1000 eV
 

Eigensolver
   Davidson(niter=2) 

Densities:
  Coarse grid: 18*18*18 grid
  Fine grid: 36*36*36 grid
  Total Charge: 0.000000 

Density mixing:
  Method: separate
  Backend: pulay
  Linear mixing parameter: 0.05
  Mixing with 5 old densities
  Damping of long wave oscillations: 50 

Hamiltonian:
  XC and Coulomb potentials evaluated on a 36*36*36 grid
  Using the PBE Exchange-Correlation functional
  External potential:
    NoExternalPotential
 

XC parameters: PBE with 2 nearest neighbor stencil

Memory estimate:
  Process memory now: 282.09 MiB
  Calculator: 12.66 MiB
    Density: 2.70 MiB
      Arrays: 1.16 MiB
      Localized functions: 1.10 MiB
      Mixer: 0.44 MiB
    Hamiltonian: 0.78 MiB
      Arrays: 0.76 MiB
      XC: 0.00 MiB
      Poisson: 0.00 MiB
      vbar: 0.02 MiB
    Wavefunctions: 9.18 MiB
      Arrays psit_nG: 6.14 MiB
      Eigensolver: 0.27 MiB
      Projections: 0.06 MiB
      Projectors: 1.93 MiB
      PW-descriptor: 0.78 MiB

Total number of cores used: 1

Number of atoms: 2
Number of atomic orbitals: 8
Number of bands in calculation: 11
Number of valence electrons: 2
Bands to converge: occupied

... initialized

Initializing position-dependent things.

Density initialized from atomic densities
Creating initial wave functions:
  8 bands from LCAO basis set
  3 bands from random numbers

   .-------.  
  /|       |  
 * |       |  
 | |  Li   |  
 | .-------.  
 |/       /   
 Li------*    

Positions:
   0 Li     0.000000    0.000000    0.000000    ( 0.0000,  0.0000,  0.0000)
   1 Li     1.718661    1.718661    1.718661    ( 0.0000,  0.0000,  0.0000)

Unit cell:
           periodic     x           y           z      points  spacing
  1. axis:    yes    3.437323    0.000000    0.000000    18     0.1910
  2. axis:    yes    0.000000    3.437323    0.000000    18     0.1910
  3. axis:    yes    0.000000    0.000000    3.437323    18     0.1910

  Lengths:   3.437323   3.437323   3.437323
  Angles:   90.000000  90.000000  90.000000

Effective grid spacing dv^(1/3) = 0.1910

     iter     time        total  log10-change:
                         energy  eigst   dens
iter:   1 15:10:43    -3.827589
iter:   2 15:10:45    -3.825311  -1.99  -1.25
iter:   3 15:10:46    -3.985919  -2.65  -1.25
iter:   4 15:10:47    -3.801140  -3.07  -0.92
iter:   5 15:10:49    -3.800969  -4.81  -2.58
iter:   6 15:10:50    -3.800870c -4.91  -2.38
iter:   7 15:10:51    -3.800870c -6.40  -3.51
iter:   8 15:10:53    -3.800870c -7.94c -4.16c

Converged after 8 iterations.

Dipole moment: (-0.000000, -0.000000, -0.000000) |e|*Ang

Energy contributions relative to reference atoms: (reference = -405.575640)

Kinetic:         +3.842661
Potential:       -3.264415
External:        +0.000000
XC:              -4.347415
Entropy (-ST):   -0.032245
Local:           -0.015578
--------------------------
Free energy:     -3.816993
Extrapolated:    -3.800870

Showing only first 2 kpts
 Kpt  Band  Eigenvalues  Occupancy
  0     0     -3.23120    2.00000
  0     1      5.86087    0.00000
  0     2      5.86087    0.00000

  1     0     -3.11396    2.00000
  1     1      4.53628    0.00000
  1     2      6.01298    0.00000


Fermi level: 0.31516

No gap
Stress tensor:
    -0.000246     0.000000     0.000000
     0.000000    -0.000246     0.000000
     0.000000     0.000000    -0.000246
System changes: cell, positions 

Initialize ...

Li-setup:
  name: Lithium
  id: 830b4218f175192f93f959cfc0aad614
  Z: 3.0
  valence: 1
  core: 2
  charge: 0.0
  file: /Users/gabrielbirnbaum/dft_learning/DIR/gpaw-setups-0.9.20000/Li.PBE.gz
  compensation charges: gauss, rc=0.33, lmax=2
  cutoffs: 1.91(filt), 2.55(core),
  valence states:
                energy  radius
    2s(1.00)    -2.874   1.058
    2p(0.00)    -1.090   1.058
    *s          24.337   1.058

  Using partial waves for Li as LCAO basis

Reference energy: -405.575640

Spin-paired calculation

Convergence criteria:
 Maximum [total energy] change in last 3 cyles: 0.0005 eV / electron
 Maximum integral of absolute [dens]ity change: 0.0001 electrons / valence electron
 Maximum integral of absolute [eigenst]ate change: 4e-08 eV^2 / valence electron
 Maximum number of scf [iter]ations: 333
 (Square brackets indicate name in SCF output, whereas a 'c' in
 the SCF output indicates the quantity has converged.)

Symmetries present (total): 48

  ( 1  0  0)  ( 1  0  0)  ( 1  0  0)  ( 1  0  0)  ( 1  0  0)  ( 1  0  0)
  ( 0  1  0)  ( 0  1  0)  ( 0  0  1)  ( 0  0  1)  ( 0  0 -1)  ( 0  0 -1)
  ( 0  0  1)  ( 0  0 -1)  ( 0  1  0)  ( 0 -1  0)  ( 0  1  0)  ( 0 -1  0)

  ( 1  0  0)  ( 1  0  0)  ( 0  1  0)  ( 0  1  0)  ( 0  1  0)  ( 0  1  0)
  ( 0 -1  0)  ( 0 -1  0)  ( 1  0  0)  ( 1  0  0)  ( 0  0  1)  ( 0  0  1)
  ( 0  0  1)  ( 0  0 -1)  ( 0  0  1)  ( 0  0 -1)  ( 1  0  0)  (-1  0  0)

  ( 0  1  0)  ( 0  1  0)  ( 0  1  0)  ( 0  1  0)  ( 0  0  1)  ( 0  0  1)
  ( 0  0 -1)  ( 0  0 -1)  (-1  0  0)  (-1  0  0)  ( 1  0  0)  ( 1  0  0)
  ( 1  0  0)  (-1  0  0)  ( 0  0  1)  ( 0  0 -1)  ( 0  1  0)  ( 0 -1  0)

  ( 0  0  1)  ( 0  0  1)  ( 0  0  1)  ( 0  0  1)  ( 0  0  1)  ( 0  0  1)
  ( 0  1  0)  ( 0  1  0)  ( 0 -1  0)  ( 0 -1  0)  (-1  0  0)  (-1  0  0)
  ( 1  0  0)  (-1  0  0)  ( 1  0  0)  (-1  0  0)  ( 0  1  0)  ( 0 -1  0)

  ( 0  0 -1)  ( 0  0 -1)  ( 0  0 -1)  ( 0  0 -1)  ( 0  0 -1)  ( 0  0 -1)
  ( 1  0  0)  ( 1  0  0)  ( 0  1  0)  ( 0  1  0)  ( 0 -1  0)  ( 0 -1  0)
  ( 0  1  0)  ( 0 -1  0)  ( 1  0  0)  (-1  0  0)  ( 1  0  0)  (-1  0  0)

  ( 0  0 -1)  ( 0  0 -1)  ( 0 -1  0)  ( 0 -1  0)  ( 0 -1  0)  ( 0 -1  0)
  (-1  0  0)  (-1  0  0)  ( 1  0  0)  ( 1  0  0)  ( 0  0  1)  ( 0  0  1)
  ( 0  1  0)  ( 0 -1  0)  ( 0  0  1)  ( 0  0 -1)  ( 1  0  0)  (-1  0  0)

  ( 0 -1  0)  ( 0 -1  0)  ( 0 -1  0)  ( 0 -1  0)  (-1  0  0)  (-1  0  0)
  ( 0  0 -1)  ( 0  0 -1)  (-1  0  0)  (-1  0  0)  ( 0  1  0)  ( 0  1  0)
  ( 1  0  0)  (-1  0  0)  ( 0  0  1)  ( 0  0 -1)  ( 0  0  1)  ( 0  0 -1)

  (-1  0  0)  (-1  0  0)  (-1  0  0)  (-1  0  0)  (-1  0  0)  (-1  0  0)
  ( 0  0  1)  ( 0  0  1)  ( 0  0 -1)  ( 0  0 -1)  ( 0 -1  0)  ( 0 -1  0)
  ( 0  1  0)  ( 0 -1  0)  ( 0  1  0)  ( 0 -1  0)  ( 0  0  1)  ( 0  0 -1)

729 k-points: 9 x 9 x 9 Monkhorst-Pack grid
35 k-points in the irreducible part of the Brillouin zone
       k-points in crystal coordinates                weights
   0:     0.00000000    0.00000000    0.00000000          1/729
   1:     0.11111111    0.00000000    0.00000000          6/729
   2:     0.11111111    0.11111111    0.00000000         12/729
   3:     0.11111111    0.11111111    0.11111111          8/729
   4:     0.22222222    0.00000000    0.00000000          6/729
   5:     0.22222222    0.11111111    0.00000000         24/729
   6:     0.22222222    0.11111111    0.11111111         24/729
   7:     0.22222222    0.22222222    0.00000000         12/729
   8:     0.22222222    0.22222222    0.11111111         24/729
   9:     0.22222222    0.22222222    0.22222222          8/729
          ...
  34:     0.44444444    0.44444444    0.44444444          8/729

Wave functions: Plane wave expansion
  Cutoff energy: 500.000 eV
  Number of coefficients (min, max): 1021, 1046
  Pulay-stress correction: 0.000000 eV/Ang^3 (de/decut=0.000000)
  Using Numpy's FFT
  ScaLapack parameters: grid=1x1, blocksize=None
  Wavefunction extrapolation:
    Improved wavefunction reuse through dual PAW basis 

Occupation numbers: Fermi-Dirac: width=0.1000 eV
 

Eigensolver
   Davidson(niter=2) 

Densities:
  Coarse grid: 18*18*18 grid
  Fine grid: 36*36*36 grid
  Total Charge: 0.000000 

Density mixing:
  Method: separate
  Backend: pulay
  Linear mixing parameter: 0.05
  Mixing with 5 old densities
  Damping of long wave oscillations: 50 

Hamiltonian:
  XC and Coulomb potentials evaluated on a 36*36*36 grid
  Using the PBE Exchange-Correlation functional
  External potential:
    NoExternalPotential
 

XC parameters: PBE with 2 nearest neighbor stencil

Memory estimate:
  Process memory now: 282.94 MiB
  Calculator: 12.67 MiB
    Density: 2.70 MiB
      Arrays: 1.16 MiB
      Localized functions: 1.10 MiB
      Mixer: 0.44 MiB
    Hamiltonian: 0.78 MiB
      Arrays: 0.76 MiB
      XC: 0.00 MiB
      Poisson: 0.00 MiB
      vbar: 0.02 MiB
    Wavefunctions: 9.19 MiB
      Arrays psit_nG: 6.14 MiB
      Eigensolver: 0.27 MiB
      Projections: 0.06 MiB
      Projectors: 1.93 MiB
      PW-descriptor: 0.78 MiB

Total number of cores used: 1

Number of atoms: 2
Number of atomic orbitals: 8
Number of bands in calculation: 11
Number of valence electrons: 2
Bands to converge: occupied

... initialized

Initializing position-dependent things.

Density initialized from atomic densities
Creating initial wave functions:
  8 bands from LCAO basis set
  3 bands from random numbers

   .-------.  
  /|       |  
 * |       |  
 | |  Li   |  
 | .-------.  
 |/       /   
 Li------*    

Positions:
   0 Li     0.000000    0.000000    0.000000    ( 0.0000,  0.0000,  0.0000)
   1 Li     1.720334    1.720334    1.720334    ( 0.0000,  0.0000,  0.0000)

Unit cell:
           periodic     x           y           z      points  spacing
  1. axis:    yes    3.440668    0.000000    0.000000    18     0.1911
  2. axis:    yes    0.000000    3.440668    0.000000    18     0.1911
  3. axis:    yes    0.000000    0.000000    3.440668    18     0.1911

  Lengths:   3.440668   3.440668   3.440668
  Angles:   90.000000  90.000000  90.000000

Effective grid spacing dv^(1/3) = 0.1911

     iter     time        total  log10-change:
                         energy  eigst   dens
iter:   1 15:10:55    -3.827287
iter:   2 15:10:56    -3.825057  -1.99  -1.26
iter:   3 15:10:58    -3.990277  -2.47  -1.25
iter:   4 15:10:59    -3.801147  -2.89  -0.94
iter:   5 15:11:01    -3.800989  -4.54  -2.60
iter:   6 15:11:02    -3.800887c -5.01  -2.40
iter:   7 15:11:04    -3.800879c -5.71  -2.90
iter:   8 15:11:05    -3.800879c -7.23  -3.98
iter:   9 15:11:07    -3.800879c -8.05c -3.74
iter:  10 15:11:08    -3.800879c -9.42c -5.02c

Converged after 10 iterations.

Dipole moment: (-0.000000, -0.000000, -0.000000) |e|*Ang

Energy contributions relative to reference atoms: (reference = -405.575640)

Kinetic:         +3.800940
Potential:       -3.235843
External:        +0.000000
XC:              -4.334376
Entropy (-ST):   -0.032257
Local:           -0.015471
--------------------------
Free energy:     -3.817007
Extrapolated:    -3.800879

Showing only first 2 kpts
 Kpt  Band  Eigenvalues  Occupancy
  0     0     -3.23482    2.00000
  0     1      5.84287    0.00000
  0     2      5.84287    0.00000

  1     0     -3.11770    2.00000
  1     1      4.52114    0.00000
  1     2      5.99467    0.00000


Fermi level: 0.30771

No gap
Stress tensor:
     0.000015     0.000000     0.000000
     0.000000     0.000015     0.000000
     0.000000     0.000000     0.000015
Timing:                              incl.     excl.
-----------------------------------------------------------
Hamiltonian:                         0.202     0.004   0.0% |
 Atomic:                             0.130     0.003   0.0% |
  XC Correction:                     0.127     0.127   0.1% |
 Calculate atomic Hamiltonians:      0.007     0.007   0.0% |
 Communicate:                        0.000     0.000   0.0% |
 Initialize Hamiltonian:             0.000     0.000   0.0% |
 Poisson:                            0.002     0.002   0.0% |
 XC 3D grid:                         0.058     0.058   0.0% |
LCAO initialization:                 1.926     0.066   0.1% |
 LCAO eigensolver:                   0.289     0.003   0.0% |
  Calculate projections:             0.002     0.002   0.0% |
  DenseAtomicCorrection:             0.007     0.007   0.0% |
  Distribute overlap matrix:         0.002     0.002   0.0% |
  Orbital Layouts:                   0.012     0.012   0.0% |
  Potential matrix:                  0.243     0.243   0.2% |
  Sum over cells:                    0.020     0.020   0.0% |
 LCAO to grid:                       1.085     1.085   0.9% |
 Set positions (LCAO WFS):           0.487     0.078   0.1% |
  Basic WFS set positions:           0.009     0.009   0.0% |
  Basis functions set positions:     0.000     0.000   0.0% |
  P tci:                             0.132     0.132   0.1% |
  ST tci:                            0.230     0.230   0.2% |
  mktci:                             0.038     0.038   0.0% |
PWDescriptor:                        0.046     0.046   0.0% |
SCF-cycle:                          59.399     0.187   0.2% |
 Davidson:                          51.825     2.332   1.9% ||
  Apply H:                          10.739    10.591   8.8% |---|
   HMM T:                            0.148     0.148   0.1% |
  Subspace diag:                    12.181     0.071   0.1% |
   calc_h_matrix:                   11.746     0.330   0.3% |
    Apply H:                        11.416    11.263   9.3% |---|
     HMM T:                          0.153     0.153   0.1% |
   diagonalize:                      0.169     0.169   0.1% |
   rotate_psi:                       0.195     0.195   0.2% |
  calc. matrices:                   25.681     2.844   2.4% ||
   Apply H:                         22.837    22.546  18.7% |------|
    HMM T:                           0.290     0.290   0.2% |
  diagonalize:                       0.583     0.583   0.5% |
  rotate_psi:                        0.309     0.309   0.3% |
 Density:                            5.507     0.001   0.0% |
  Atomic density matrices:           0.051     0.051   0.0% |
  Mix:                               0.170     0.170   0.1% |
  Multipole moments:                 0.003     0.003   0.0% |
  Pseudo density:                    5.284     5.014   4.2% |-|
   Symmetrize density:               0.270     0.270   0.2% |
 Hamiltonian:                        1.807     0.032   0.0% |
  Atomic:                            1.171     0.014   0.0% |
   XC Correction:                    1.157     1.157   1.0% |
  Calculate atomic Hamiltonians:     0.060     0.060   0.0% |
  Communicate:                       0.000     0.000   0.0% |
  Poisson:                           0.020     0.020   0.0% |
  XC 3D grid:                        0.525     0.525   0.4% |
 Orthonormalize:                     0.072     0.007   0.0% |
  calc_s_matrix:                     0.025     0.025   0.0% |
  inverse-cholesky:                  0.008     0.008   0.0% |
  projections:                       0.024     0.024   0.0% |
  rotate_psi_s:                      0.009     0.009   0.0% |
Set symmetry:                        0.175     0.175   0.1% |
Stress:                              1.322     0.000   0.0% |
 Stress tensor:                      1.322     1.322   1.1% |
Other:                              57.588    57.588  47.7% |------------------|
-----------------------------------------------------------
Total:                                       120.659 100.0%

Memory usage: 297.82 MiB
Date: Sun Jul 17 15:12:06 2022
