
  ___ ___ ___ _ _ _  
 |   |   |_  | | | | 
 | | | | | . | | | | 
 |__ |  _|___|_____|  22.1.0
 |___|_|             

User:   gabrielbirnbaum@Gabriels-MacBook-Pro.local
Date:   Mon Jul 18 21:03:08 2022
Arch:   x86_64
Pid:    47743
Python: 3.9.13
gpaw:   /Users/gabrielbirnbaum/PycharmProjects/nanolithia/venv/lib/python3.9/site-packages/gpaw
_gpaw:  /Users/gabrielbirnbaum/PycharmProjects/nanolithia/venv/lib/python3.9/site-packages/
        _gpaw.cpython-39-darwin.so
ase:    /Users/gabrielbirnbaum/PycharmProjects/nanolithia/venv/lib/python3.9/site-packages/ase (version 3.22.1)
numpy:  /Users/gabrielbirnbaum/PycharmProjects/nanolithia/venv/lib/python3.9/site-packages/numpy (version 1.23.0)
scipy:  /Users/gabrielbirnbaum/PycharmProjects/nanolithia/venv/lib/python3.9/site-packages/scipy (version 1.8.1)
libxc:  5.2.3
units:  Angstrom and eV
cores: 1
OpenMP: False
OMP_NUM_THREADS: 1

Input parameters:
  kpts: {size: (6, 6, 6)}
  mode: {ecut: 500.0,
         name: pw}
  setups: {O: :p,0.76}
  xc: PBE

System changes: positions, numbers, cell, pbc, initial_charges, initial_magmoms 

Initialize ...

Li-setup:
  name: Lithium
  id: 830b4218f175192f93f959cfc0aad614
  Z: 3.0
  valence: 1
  core: 2
  charge: 0.0
  file: /Users/gabrielbirnbaum/dft_learning/DIR/gpaw-setups-0.9.20000/Li.PBE.gz
  compensation charges: gauss, rc=0.33, lmax=2
  cutoffs: 1.91(filt), 2.55(core),
  valence states:
                energy  radius
    2s(1.00)    -2.874   1.058
    2p(0.00)    -1.090   1.058
    *s          24.337   1.058

  Using partial waves for Li as LCAO basis

O-setup:
  name: Oxygen
  id: 32ecd46bf208036f09c70b0ec9a88b78
  Z: 8.0
  valence: 6
  core: 2
  charge: 0.0
  Hubbard U: 0.760000 eV (l=1, scale=True)
  file: /Users/gabrielbirnbaum/dft_learning/DIR/gpaw-setups-0.9.20000/O.PBE.gz
  compensation charges: gauss, rc=0.21, lmax=2
  cutoffs: 1.17(filt), 0.83(core),
  valence states:
                energy  radius
    2s(2.00)   -23.961   0.688
    2p(4.00)    -9.029   0.598
    *s           3.251   0.688
    *p          18.182   0.598
    *d           0.000   0.619

  Using partial waves for O as LCAO basis

Reference energy: -8974.560486

Spin-paired calculation

Convergence criteria:
 Maximum [total energy] change in last 3 cyles: 0.0005 eV / electron
 Maximum integral of absolute [dens]ity change: 0.0001 electrons / valence electron
 Maximum integral of absolute [eigenst]ate change: 4e-08 eV^2 / valence electron
 Maximum number of scf [iter]ations: 333
 (Square brackets indicate name in SCF output, whereas a 'c' in
 the SCF output indicates the quantity has converged.)

Symmetries present (total): 4

  ( 1  0  0)  ( 0  1  0)  ( 0 -1  0)  (-1  0  0)
  ( 0  1  0)  ( 1  0  0)  (-1  0  0)  ( 0 -1  0)
  ( 0  0  1)  ( 0  0 -1)  ( 0  0  1)  ( 0  0 -1)

216 k-points: 6 x 6 x 6 Monkhorst-Pack grid
63 k-points in the irreducible part of the Brillouin zone
       k-points in crystal coordinates                weights
   0:     0.08333333   -0.08333333   -0.41666667          2/216
   1:     0.08333333   -0.08333333   -0.25000000          2/216
   2:     0.08333333   -0.08333333   -0.08333333          2/216
   3:     0.08333333   -0.08333333    0.08333333          2/216
   4:     0.08333333   -0.08333333    0.25000000          2/216
   5:     0.08333333   -0.08333333    0.41666667          2/216
   6:     0.08333333    0.08333333    0.08333333          4/216
   7:     0.08333333    0.08333333    0.25000000          4/216
   8:     0.08333333    0.08333333    0.41666667          4/216
   9:     0.25000000   -0.25000000   -0.41666667          2/216
          ...
  62:     0.41666667    0.41666667    0.41666667          4/216

Wave functions: Plane wave expansion
  Cutoff energy: 500.000 eV
  Number of coefficients (min, max): 1704, 1731
  Pulay-stress correction: 0.000000 eV/Ang^3 (de/decut=0.000000)
  Using Numpy's FFT
  ScaLapack parameters: grid=1x1, blocksize=None
  Wavefunction extrapolation:
    Improved wavefunction reuse through dual PAW basis 

Occupation numbers: Fermi-Dirac: width=0.1000 eV
 

Eigensolver
   Davidson(niter=2) 

Densities:
  Coarse grid: 18*18*40 grid
  Fine grid: 36*36*80 grid
  Total Charge: 0.000000 

Density mixing:
  Method: separate
  Backend: pulay
  Linear mixing parameter: 0.05
  Mixing with 5 old densities
  Damping of long wave oscillations: 50 

Hamiltonian:
  XC and Coulomb potentials evaluated on a 36*36*80 grid
  Using the PBE Exchange-Correlation functional
  External potential:
    NoExternalPotential
 

XC parameters: PBE with 2 nearest neighbor stencil

Memory estimate:
  Process memory now: 2515.81 MiB
  Calculator: 60.88 MiB
    Density: 5.84 MiB
      Arrays: 2.57 MiB
      Localized functions: 2.28 MiB
      Mixer: 0.99 MiB
    Hamiltonian: 1.74 MiB
      Arrays: 1.68 MiB
      XC: 0.00 MiB
      Poisson: 0.00 MiB
      vbar: 0.06 MiB
    Wavefunctions: 53.31 MiB
      Arrays psit_nG: 34.94 MiB
      Eigensolver: 0.75 MiB
      Projections: 1.45 MiB
      Projectors: 14.00 MiB
      PW-descriptor: 2.16 MiB

Total number of cores used: 1

Number of atoms: 8
Number of atomic orbitals: 32
Number of bands in calculation: 21
Number of valence electrons: 28
Bands to converge: occupied

... initialized

Initializing position-dependent things.

Density initialized from atomic densities
Creating initial wave functions:
  21 bands from LCAO basis set

                      
                      
                      
                      
             O        
                      
           LiO        
                      
        Li            
                      
           O Li       
                      
           O          
        Li            
                      
                      
                      
                      

Positions:
   0 Li     0.000000    0.000000    3.851761    ( 0.0000,  0.0000,  0.0000)
   1 Li     0.000000    0.000000    0.000000    ( 0.0000,  0.0000,  0.0000)
   2 Li     1.590181   -0.918093    5.777642    ( 0.0000,  0.0000,  0.0000)
   3 Li     1.590181    0.918093    1.925881    ( 0.0000,  0.0000,  0.0000)
   4 O      1.590181   -0.918093    1.150213    ( 0.0000,  0.0000,  0.0000)
   5 O      1.590181    0.918093    5.001974    ( 0.0000,  0.0000,  0.0000)
   6 O      1.590181    0.918093    6.553309    ( 0.0000,  0.0000,  0.0000)
   7 O      1.590181   -0.918093    2.701548    ( 0.0000,  0.0000,  0.0000)

Unit cell:
           periodic     x           y           z      points  spacing
  1. axis:    yes    1.590181   -2.754274    0.000000    18     0.1530
  2. axis:    yes    1.590181    2.754274    0.000000    18     0.1530
  3. axis:    yes    0.000000    0.000000    7.703522    40     0.1926

  Lengths:   3.180362   3.180362   7.703522
  Angles:   90.000000  90.000000 119.999995

Effective grid spacing dv^(1/3) = 0.1733

     iter     time        total  log10-change:
                         energy  eigst   dens
iter:   1 21:03:23   -37.407661
iter:   2 21:03:32   -37.229346  -1.70  -0.88
iter:   3 21:03:40   -36.432265  -1.34  -0.92
iter:   4 21:03:48   -36.882908  -1.32  -1.27
iter:   5 21:03:56   -36.402588  -1.65  -1.32
iter:   6 21:04:04   -36.403662  -3.31  -2.15
iter:   7 21:04:12   -36.435223  -2.72  -2.15
iter:   8 21:04:20   -36.409400  -2.38  -1.89
iter:   9 21:04:28   -36.405334  -4.45  -2.20
iter:  10 21:04:36   -36.404886c -5.77  -2.32
iter:  11 21:04:44   -36.401855c -3.46  -2.34
iter:  12 21:04:52   -36.401824c -5.53  -3.32
iter:  13 21:05:00   -36.401812c -6.32  -3.54
iter:  14 21:05:08   -36.401815c -7.82c -3.71
iter:  15 21:05:16   -36.401815c -7.27  -3.77
iter:  16 21:05:24   -36.401816c -7.94c -3.86
iter:  17 21:05:32   -36.401818c -7.46c -3.89
iter:  18 21:05:40   -36.401819c -8.11c -4.30c

Converged after 18 iterations.

Dipole moment: (0.000000, -0.000000, -0.000000) |e|*Ang

Energy contributions relative to reference atoms: (reference = -8974.560486)

Kinetic:        +37.038411
Potential:      -32.810060
External:        +0.000000
XC:             -40.827444
Entropy (-ST):   -0.000002
Local:           +0.197276
--------------------------
Free energy:    -36.401820
Extrapolated:   -36.401819

Showing only first 2 kpts
 Kpt  Band  Eigenvalues  Occupancy
  0    12      2.33259    2.00000
  0    13      2.41180    2.00000
  0    14      5.71906    0.00000
  0    15      6.27508    0.00000

  1    12      2.35276    2.00000
  1    13      2.47763    2.00000
  1    14      5.22897    0.00000
  1    15      6.76828    0.00000


Fermi level: 3.81202

Gap: 2.423 eV
Transition (v -> c):
  (s=0, k=3, n=13, [0.08, -0.08, 0.08]) -> (s=0, k=3, n=14, [0.08, -0.08, 0.08])
Timing:                              incl.     excl.
-----------------------------------------------------------
Hamiltonian:                         0.184     0.001   0.0% |
 Atomic:                             0.146     0.002   0.0% |
  XC Correction:                     0.144     0.144   0.0% |
 Calculate atomic Hamiltonians:      0.009     0.009   0.0% |
 Communicate:                        0.000     0.000   0.0% |
 Initialize Hamiltonian:             0.000     0.000   0.0% |
 Poisson:                            0.000     0.000   0.0% |
 XC 3D grid:                         0.029     0.029   0.0% |
LCAO initialization:                 7.900     0.033   0.0% |
 LCAO eigensolver:                   0.810     0.002   0.0% |
  Calculate projections:             0.004     0.004   0.0% |
  DenseAtomicCorrection:             0.014     0.014   0.0% |
  Distribute overlap matrix:         0.001     0.001   0.0% |
  Orbital Layouts:                   0.029     0.029   0.0% |
  Potential matrix:                  0.722     0.722   0.2% |
  Sum over cells:                    0.037     0.037   0.0% |
 LCAO to grid:                       5.508     5.508   1.5% ||
 Set positions (LCAO WFS):           1.550     0.218   0.1% |
  Basic WFS set positions:           0.001     0.001   0.0% |
  Basis functions set positions:     0.000     0.000   0.0% |
  P tci:                             0.553     0.553   0.2% |
  ST tci:                            0.736     0.736   0.2% |
  mktci:                             0.042     0.042   0.0% |
PWDescriptor:                        0.020     0.020   0.0% |
SCF-cycle:                         143.610     0.238   0.1% |
 Davidson:                         126.257     7.883   2.2% ||
  Apply H:                          28.155    27.879   7.6% |--|
   HMM T:                            0.275     0.275   0.1% |
  Subspace diag:                    29.230     0.071   0.0% |
   calc_h_matrix:                   28.396     0.511   0.1% |
    Apply H:                        27.885    27.597   7.6% |--|
     HMM T:                          0.287     0.287   0.1% |
   diagonalize:                      0.228     0.228   0.1% |
   rotate_psi:                       0.535     0.535   0.1% |
  calc. matrices:                   58.879     2.844   0.8% |
   Apply H:                         56.035    55.494  15.2% |-----|
    HMM T:                           0.541     0.541   0.1% |
  diagonalize:                       1.123     1.123   0.3% |
  rotate_psi:                        0.988     0.988   0.3% |
 Density:                           13.705     0.000   0.0% |
  Atomic density matrices:           0.130     0.130   0.0% |
  Mix:                               0.289     0.289   0.1% |
  Multipole moments:                 0.003     0.003   0.0% |
  Pseudo density:                   13.283    13.261   3.6% ||
   Symmetrize density:               0.022     0.022   0.0% |
 Hamiltonian:                        3.288     0.014   0.0% |
  Atomic:                            2.618     0.050   0.0% |
   XC Correction:                    2.568     2.568   0.7% |
  Calculate atomic Hamiltonians:     0.169     0.169   0.0% |
  Communicate:                       0.000     0.000   0.0% |
  Poisson:                           0.005     0.005   0.0% |
  XC 3D grid:                        0.482     0.482   0.1% |
 Orthonormalize:                     0.121     0.004   0.0% |
  calc_s_matrix:                     0.028     0.028   0.0% |
  inverse-cholesky:                  0.004     0.004   0.0% |
  projections:                       0.071     0.071   0.0% |
  rotate_psi_s:                      0.014     0.014   0.0% |
Set symmetry:                        0.007     0.007   0.0% |
Other:                             213.453   213.453  58.5% |----------------------|
-----------------------------------------------------------
Total:                                       365.174 100.0%

Memory usage: 2.47 GiB
Date: Mon Jul 18 21:09:13 2022
