
  ___ ___ ___ _ _ _  
 |   |   |_  | | | | 
 | | | | | . | | | | 
 |__ |  _|___|_____|  22.1.0
 |___|_|             

User:   gabrielbirnbaum@Gabriels-MacBook-Pro.local
Date:   Mon Jul 18 22:02:34 2022
Arch:   x86_64
Pid:    65545
Python: 3.9.13
gpaw:   /Users/gabrielbirnbaum/PycharmProjects/nanolithia/venv/lib/python3.9/site-packages/gpaw
_gpaw:  /Users/gabrielbirnbaum/PycharmProjects/nanolithia/venv/lib/python3.9/site-packages/
        _gpaw.cpython-39-darwin.so
ase:    /Users/gabrielbirnbaum/PycharmProjects/nanolithia/venv/lib/python3.9/site-packages/ase (version 3.22.1)
numpy:  /Users/gabrielbirnbaum/PycharmProjects/nanolithia/venv/lib/python3.9/site-packages/numpy (version 1.23.0)
scipy:  /Users/gabrielbirnbaum/PycharmProjects/nanolithia/venv/lib/python3.9/site-packages/scipy (version 1.8.1)
libxc:  5.2.3
units:  Angstrom and eV
cores: 1
OpenMP: False
OMP_NUM_THREADS: 1

Input parameters:
  kpts: {size: (8, 8, 8)}
  mode: {ecut: 400.0,
         name: pw}
  setups: {O: :p,0.76}
  xc: PBE

System changes: positions, numbers, cell, pbc, initial_charges, initial_magmoms 

Initialize ...

Li-setup:
  name: Lithium
  id: 830b4218f175192f93f959cfc0aad614
  Z: 3.0
  valence: 1
  core: 2
  charge: 0.0
  file: /Users/gabrielbirnbaum/dft_learning/DIR/gpaw-setups-0.9.20000/Li.PBE.gz
  compensation charges: gauss, rc=0.33, lmax=2
  cutoffs: 1.91(filt), 2.55(core),
  valence states:
                energy  radius
    2s(1.00)    -2.874   1.058
    2p(0.00)    -1.090   1.058
    *s          24.337   1.058

  Using partial waves for Li as LCAO basis

O-setup:
  name: Oxygen
  id: 32ecd46bf208036f09c70b0ec9a88b78
  Z: 8.0
  valence: 6
  core: 2
  charge: 0.0
  Hubbard U: 0.760000 eV (l=1, scale=True)
  file: /Users/gabrielbirnbaum/dft_learning/DIR/gpaw-setups-0.9.20000/O.PBE.gz
  compensation charges: gauss, rc=0.21, lmax=2
  cutoffs: 1.17(filt), 0.83(core),
  valence states:
                energy  radius
    2s(2.00)   -23.961   0.688
    2p(4.00)    -9.029   0.598
    *s           3.251   0.688
    *p          18.182   0.598
    *d           0.000   0.619

  Using partial waves for O as LCAO basis

Reference energy: -8974.560486

Spin-paired calculation

Convergence criteria:
 Maximum [total energy] change in last 3 cyles: 0.0005 eV / electron
 Maximum integral of absolute [dens]ity change: 0.0001 electrons / valence electron
 Maximum integral of absolute [eigenst]ate change: 4e-08 eV^2 / valence electron
 Maximum number of scf [iter]ations: 333
 (Square brackets indicate name in SCF output, whereas a 'c' in
 the SCF output indicates the quantity has converged.)

Symmetries present (total): 4

  ( 1  0  0)  ( 0  1  0)  ( 0 -1  0)  (-1  0  0)
  ( 0  1  0)  ( 1  0  0)  (-1  0  0)  ( 0 -1  0)
  ( 0  0  1)  ( 0  0 -1)  ( 0  0  1)  ( 0  0 -1)

512 k-points: 8 x 8 x 8 Monkhorst-Pack grid
144 k-points in the irreducible part of the Brillouin zone
       k-points in crystal coordinates                weights
   0:     0.06250000   -0.06250000   -0.43750000          2/512
   1:     0.06250000   -0.06250000   -0.31250000          2/512
   2:     0.06250000   -0.06250000   -0.18750000          2/512
   3:     0.06250000   -0.06250000   -0.06250000          2/512
   4:     0.06250000   -0.06250000    0.06250000          2/512
   5:     0.06250000   -0.06250000    0.18750000          2/512
   6:     0.06250000   -0.06250000    0.31250000          2/512
   7:     0.06250000   -0.06250000    0.43750000          2/512
   8:     0.06250000    0.06250000    0.06250000          4/512
   9:     0.06250000    0.06250000    0.18750000          4/512
          ...
 143:     0.43750000    0.43750000    0.43750000          4/512

Wave functions: Plane wave expansion
  Cutoff energy: 400.000 eV
  Number of coefficients (min, max): 1204, 1241
  Pulay-stress correction: 0.000000 eV/Ang^3 (de/decut=0.000000)
  Using Numpy's FFT
  ScaLapack parameters: grid=1x1, blocksize=None
  Wavefunction extrapolation:
    Improved wavefunction reuse through dual PAW basis 

Occupation numbers: Fermi-Dirac: width=0.1000 eV
 

Eigensolver
   Davidson(niter=2) 

Densities:
  Coarse grid: 15*15*36 grid
  Fine grid: 30*30*72 grid
  Total Charge: 0.000000 

Density mixing:
  Method: separate
  Backend: pulay
  Linear mixing parameter: 0.05
  Mixing with 5 old densities
  Damping of long wave oscillations: 50 

Hamiltonian:
  XC and Coulomb potentials evaluated on a 30*30*72 grid
  Using the PBE Exchange-Correlation functional
  External potential:
    NoExternalPotential
 

XC parameters: PBE with 2 nearest neighbor stencil

Memory estimate:
  Process memory now: 638.16 MiB
  Calculator: 92.01 MiB
    Density: 3.85 MiB
      Arrays: 1.61 MiB
      Localized functions: 1.63 MiB
      Mixer: 0.62 MiB
    Hamiltonian: 1.09 MiB
      Arrays: 1.05 MiB
      XC: 0.00 MiB
      Poisson: 0.00 MiB
      vbar: 0.04 MiB
    Wavefunctions: 87.07 MiB
      Arrays psit_nG: 57.26 MiB
      Eigensolver: 0.56 MiB
      Projections: 3.32 MiB
      Projectors: 22.89 MiB
      PW-descriptor: 3.04 MiB

Total number of cores used: 1

Number of atoms: 8
Number of atomic orbitals: 32
Number of bands in calculation: 21
Number of valence electrons: 28
Bands to converge: occupied

... initialized

Initializing position-dependent things.

Density initialized from atomic densities
Creating initial wave functions:
  21 bands from LCAO basis set

                      
                      
                      
                      
             O        
                      
           LiO        
                      
        Li            
                      
           O Li       
                      
           O          
        Li            
                      
                      
                      
                      

Positions:
   0 Li     0.000000    0.000000    3.851761    ( 0.0000,  0.0000,  0.0000)
   1 Li     0.000000    0.000000    0.000000    ( 0.0000,  0.0000,  0.0000)
   2 Li     1.590181   -0.918093    5.777642    ( 0.0000,  0.0000,  0.0000)
   3 Li     1.590181    0.918093    1.925881    ( 0.0000,  0.0000,  0.0000)
   4 O      1.590181   -0.918093    1.150213    ( 0.0000,  0.0000,  0.0000)
   5 O      1.590181    0.918093    5.001974    ( 0.0000,  0.0000,  0.0000)
   6 O      1.590181    0.918093    6.553309    ( 0.0000,  0.0000,  0.0000)
   7 O      1.590181   -0.918093    2.701548    ( 0.0000,  0.0000,  0.0000)

Unit cell:
           periodic     x           y           z      points  spacing
  1. axis:    yes    1.590181   -2.754274    0.000000    15     0.1836
  2. axis:    yes    1.590181    2.754274    0.000000    15     0.1836
  3. axis:    yes    0.000000    0.000000    7.703522    36     0.2140

  Lengths:   3.180362   3.180362   7.703522
  Angles:   90.000000  90.000000 119.999995

Effective grid spacing dv^(1/3) = 0.2027

     iter     time        total  log10-change:
                         energy  eigst   dens
iter:   1 22:02:59   -31.326414
iter:   2 22:03:11   -31.228038  -1.69  -0.89
iter:   3 22:03:23   -30.649305  -1.43  -0.92
iter:   4 22:03:37   -30.801465  -1.60  -1.30
iter:   5 22:03:51   -30.642918  -2.02  -1.54
iter:   6 22:04:03   -30.654385  -3.21  -2.03
iter:   7 22:04:16   -30.642489c -2.49  -1.93
iter:   8 22:04:28   -30.631249  -3.72  -2.12
