
  ___ ___ ___ _ _ _  
 |   |   |_  | | | | 
 | | | | | . | | | | 
 |__ |  _|___|_____|  22.1.0
 |___|_|             

User:   gabrielbirnbaum@Gabriels-MacBook-Pro.local
Date:   Mon Jul 25 13:04:46 2022
Arch:   x86_64
Pid:    92584
Python: 3.9.13
gpaw:   /Users/gabrielbirnbaum/PycharmProjects/nanolithia/venv/lib/python3.9/site-packages/gpaw
_gpaw:  /Users/gabrielbirnbaum/PycharmProjects/nanolithia/venv/lib/python3.9/site-packages/
        _gpaw.cpython-39-darwin.so
ase:    /Users/gabrielbirnbaum/PycharmProjects/nanolithia/venv/lib/python3.9/site-packages/ase (version 3.22.1)
numpy:  /Users/gabrielbirnbaum/PycharmProjects/nanolithia/venv/lib/python3.9/site-packages/numpy (version 1.23.0)
scipy:  /Users/gabrielbirnbaum/PycharmProjects/nanolithia/venv/lib/python3.9/site-packages/scipy (version 1.8.1)
libxc:  5.2.3
units:  Angstrom and eV
cores: 1
OpenMP: False
OMP_NUM_THREADS: 1

Input parameters:
  convergence: {density: 0.001,
                eigenstates: 0.0001,
                energy: 0.0002}
  kpts: {gamma: True,
         size: (8, 8, 8)}
  mode: {ecut: 450.00000000000006,
         name: pw}
  setups: {O: :p,0.33,0}
  spinpol: True

System changes: positions, numbers, cell, pbc, initial_charges, initial_magmoms 

Initialize ...

Li-setup:
  name: Lithium
  id: b73562207f97a71b6967473b66fe8b65
  Z: 3.0
  valence: 1
  core: 2
  charge: 0.0
  file: /Users/gabrielbirnbaum/dft_learning/DIR/gpaw-setups-0.9.20000/Li.LDA.gz
  compensation charges: gauss, rc=0.33, lmax=2
  cutoffs: 1.91(filt), 2.55(core),
  valence states:
                energy  radius
    2s(1.00)    -2.874   1.058
    2p(0.00)    -1.126   1.058
    *s          24.338   1.058

  Using partial waves for Li as LCAO basis

O-setup:
  name: Oxygen
  id: 9b9d51c344dea68c822856295a461509
  Z: 8.0
  valence: 6
  core: 2
  charge: 0.0
  Hubbard U: 0.330000 eV (l=1, scale=False)
  file: /Users/gabrielbirnbaum/dft_learning/DIR/gpaw-setups-0.9.20000/O.LDA.gz
  compensation charges: gauss, rc=0.21, lmax=2
  cutoffs: 1.17(filt), 0.83(core),
  valence states:
                energy  radius
    2s(2.00)   -23.752   0.688
    2p(4.00)    -9.195   0.598
    *s           3.459   0.688
    *p          18.016   0.598
    *d           0.000   0.619

  Using partial waves for O as LCAO basis

Reference energy: -8510.849865

Spin-polarized calculation.
Magnetic moment: 0.000000

Convergence criteria:
 Maximum [total energy] change in last 3 cyles: 0.0002 eV / electron
 Maximum integral of absolute [dens]ity change: 0.001 electrons / valence electron
 Maximum integral of absolute [eigenst]ate change: 0.0001 eV^2 / valence electron
 Maximum number of scf [iter]ations: 333
 (Square brackets indicate name in SCF output, whereas a 'c' in
 the SCF output indicates the quantity has converged.)

Symmetries present (total): 4

  ( 1  0  0)  ( 1  0  0)  (-1  0  0)  (-1  0  0)
  ( 0  1  0)  ( 0 -1  0)  ( 0  1  0)  ( 0 -1  0)
  ( 0  0  1)  ( 0  0 -1)  ( 0  0  1)  ( 0  0 -1)

512 k-points: 8 x 8 x 8 Monkhorst-Pack grid + [1/16,1/16,1/16]
170 k-points in the irreducible part of the Brillouin zone
       k-points in crystal coordinates                weights
   0:     0.00000000    0.00000000    0.00000000          1/512
   1:     0.00000000    0.00000000    0.12500000          2/512
   2:     0.00000000    0.00000000    0.25000000          2/512
   3:     0.00000000    0.00000000    0.37500000          2/512
   4:     0.00000000    0.00000000    0.50000000          1/512
   5:     0.00000000    0.12500000   -0.37500000          2/512
   6:     0.00000000    0.12500000   -0.25000000          2/512
   7:     0.00000000    0.12500000   -0.12500000          2/512
   8:     0.00000000    0.12500000    0.00000000          2/512
   9:     0.00000000    0.12500000    0.12500000          2/512
          ...
 169:     0.50000000    0.50000000    0.50000000          1/512

Wave functions: Plane wave expansion
  Cutoff energy: 450.000 eV
  Number of coefficients (min, max): 1232, 1270
  Pulay-stress correction: 0.000000 eV/Ang^3 (de/decut=0.000000)
  Using Numpy's FFT
  ScaLapack parameters: grid=1x1, blocksize=None
  Wavefunction extrapolation:
    Improved wavefunction reuse through dual PAW basis 

Occupation numbers: Fermi-Dirac: width=0.1000 eV
 

Eigensolver
   Davidson(niter=2) 

Densities:
  Coarse grid: 15*20*24 grid
  Fine grid: 30*40*48 grid
  Total Charge: 0.000000 

Density mixing:
  Method: difference
  Backend: pulay
  Linear mixing parameter: 0.05
  Mixing with 5 old densities
  Damping of long wave oscillations: 50 

Hamiltonian:
  XC and Coulomb potentials evaluated on a 30*40*48 grid
  Using the LDA Exchange-Correlation functional
  External potential:
    NoExternalPotential
 

Memory estimate:
  Process memory now: 468.07 MiB
  Calculator: 175.76 MiB
    Density: 4.35 MiB
      Arrays: 1.92 MiB
      Localized functions: 1.66 MiB
      Mixer: 0.77 MiB
    Hamiltonian: 1.47 MiB
      Arrays: 1.43 MiB
      XC: 0.00 MiB
      Poisson: 0.00 MiB
      vbar: 0.04 MiB
    Wavefunctions: 169.94 MiB
      Arrays psit_nG: 131.77 MiB
      Eigensolver: 0.55 MiB
      Projections: 6.43 MiB
      Projectors: 27.62 MiB
      PW-descriptor: 3.57 MiB

Total number of cores used: 1

Number of atoms: 6
Number of atomic orbitals: 24
Number of bands in calculation: 20
Number of valence electrons: 26
Bands to converge: occupied

... initialized

Initializing position-dependent things.

Density initialized from atomic densities
Creating initial wave functions:
  20 bands from LCAO basis set

   .------.  
  /|      |  
 * | O    |  
 | O      |  
 | | Li   |  
 O |      |  
 | .--O---.  
 |/      /   
 Li-----*    

Positions:
   0 Li     1.480551    1.992835    2.448045    ( 0.0000,  0.0000,  0.0000)
   1 Li     0.000000    0.000000    0.000000    ( 0.0000,  0.0000,  0.0000)
   2 O      1.480551    2.518377    0.419218    ( 0.0000,  0.0000,  0.0000)
   3 O      1.480551    1.467292    4.476872    ( 0.0000,  0.0000,  0.0000)
   4 O      0.000000    0.525542    2.028827    ( 0.0000,  0.0000,  0.0000)
   5 O      0.000000    3.460127    2.867263    ( 0.0000,  0.0000,  0.0000)

Unit cell:
           periodic     x           y           z      points  spacing
  1. axis:    yes    2.961101    0.000000    0.000000    15     0.1974
  2. axis:    yes    0.000000    3.985669    0.000000    20     0.1993
  3. axis:    yes    0.000000    0.000000    4.896090    24     0.2040

  Lengths:   2.961101   3.985669   4.896090
  Angles:   90.000000  90.000000  90.000000

Effective grid spacing dv^(1/3) = 0.2002

     iter     time        total  log10-change:  magmom
                         energy  eigst   dens
iter:   1 13:07:20   -29.468910                  +0.0000
iter:   2 13:07:43   -29.370456  -1.74  -1.03    +0.0000
iter:   3 13:08:07   -28.663877  -1.62  -1.07    +0.0000
iter:   4 13:08:31   -28.640658  -2.41  -1.51    +0.0000
iter:   5 13:08:57   -28.625820  -2.94  -1.73    +0.0000
iter:   6 13:09:22   -28.621381  -3.69  -2.10    +0.0000
iter:   7 13:09:47   -28.620630c -4.85c -2.65    +0.0000
iter:   8 13:10:13   -28.620144c -4.93c -2.84    +0.0000
iter:   9 13:10:39   -28.620277c -6.41c -3.19c   +0.0000

Converged after 9 iterations.

Dipole moment: (0.000000, 0.000000, 0.000000) |e|*Ang

Total magnetic moment: (0.000000, 0.000000, 0.000000)
Local magnetic moments:
   0 Li ( 0.000000,  0.000000,  0.000000)
   1 Li ( 0.000000,  0.000000,  0.000000)
   2 O  ( 0.000000,  0.000000,  0.000000)
   3 O  ( 0.000000,  0.000000,  0.000000)
   4 O  ( 0.000000,  0.000000,  0.000000)
   5 O  ( 0.000000,  0.000000,  0.000000)

Energy contributions relative to reference atoms: (reference = -8510.849865)

Kinetic:         +7.980533
Potential:       -7.141592
External:        +0.000000
XC:             -29.300715
Entropy (-ST):   -0.165533
Local:           -0.075736
--------------------------
Free energy:    -28.703043
Extrapolated:   -28.620277

Spin contamination: 0.000000 electrons
Showing only first 2 kpts
                      Up                     Down
 Kpt  Band  Eigenvalues  Occupancy  Eigenvalues  Occupancy
  0    11      1.91138    0.13186      1.91138    0.13186
  0    12      2.14492    0.01449      2.14492    0.01449
  0    13      2.22602    0.00649      2.22602    0.00649
  0    14      7.97454    0.00000      7.97454    0.00000

  1    11      1.81080    0.29344      1.81080    0.29344
  1    12      2.13172    0.01650      2.13172    0.01650
  1    13      2.22877    0.00631      2.22877    0.00631
  1    14      7.88392    0.00000      7.88392    0.00000


Fermi level: 1.72292

No gap
Timing:                              incl.     excl.
-----------------------------------------------------------
Hamiltonian:                         0.075     0.001   0.0% |
 Atomic:                             0.057     0.003   0.0% |
  XC Correction:                     0.053     0.053   0.0% |
 Calculate atomic Hamiltonians:      0.005     0.005   0.0% |
 Communicate:                        0.000     0.000   0.0% |
 Initialize Hamiltonian:             0.000     0.000   0.0% |
 Poisson:                            0.000     0.000   0.0% |
 XC 3D grid:                         0.012     0.012   0.0% |
LCAO initialization:               131.728     0.035   0.0% |
 LCAO eigensolver:                 117.056     0.016   0.0% |
  Calculate projections:             0.020     0.020   0.0% |
  DenseAtomicCorrection:             0.055     0.055   0.0% |
  Distribute overlap matrix:         0.007     0.007   0.0% |
  Orbital Layouts:                   0.124     0.124   0.0% |
  Potential matrix:                116.650   116.650  33.1% |------------|
  Sum over cells:                    0.183     0.183   0.1% |
 LCAO to grid:                      12.407    12.407   3.5% ||
 Set positions (LCAO WFS):           2.230     0.297   0.1% |
  Basic WFS set positions:           0.001     0.001   0.0% |
  Basis functions set positions:     0.000     0.000   0.0% |
  P tci:                             0.872     0.872   0.2% |
  ST tci:                            1.037     1.037   0.3% |
  mktci:                             0.024     0.024   0.0% |
PWDescriptor:                        0.085     0.085   0.0% |
SCF-cycle:                         219.652     0.549   0.2% |
 Davidson:                         200.451    16.354   4.6% |-|
  Apply H:                          42.254    41.548  11.8% |----|
   HMM T:                            0.706     0.706   0.2% |
  Subspace diag:                    44.768     0.200   0.1% |
   calc_h_matrix:                   42.738     1.259   0.4% |
    Apply H:                        41.479    40.766  11.6% |----|
     HMM T:                          0.713     0.713   0.2% |
   diagonalize:                      0.745     0.745   0.2% |
   rotate_psi:                       1.084     1.084   0.3% |
  calc. matrices:                   91.698     8.794   2.5% ||
   Apply H:                         82.905    81.524  23.1% |--------|
    HMM T:                           1.381     1.381   0.4% |
  diagonalize:                       3.435     3.435   1.0% |
  rotate_psi:                        1.943     1.943   0.6% |
 Density:                           17.498     0.000   0.0% |
  Atomic density matrices:           0.236     0.236   0.1% |
  Mix:                               0.096     0.096   0.0% |
  Multipole moments:                 0.001     0.001   0.0% |
  Pseudo density:                   17.165    17.153   4.9% |-|
   Symmetrize density:               0.012     0.012   0.0% |
 Hamiltonian:                        0.619     0.004   0.0% |
  Atomic:                            0.463     0.025   0.0% |
   XC Correction:                    0.438     0.438   0.1% |
  Calculate atomic Hamiltonians:     0.048     0.048   0.0% |
  Communicate:                       0.000     0.000   0.0% |
  Poisson:                           0.004     0.004   0.0% |
  XC 3D grid:                        0.099     0.099   0.0% |
 Orthonormalize:                     0.536     0.021   0.0% |
  calc_s_matrix:                     0.173     0.173   0.0% |
  inverse-cholesky:                  0.025     0.025   0.0% |
  projections:                       0.261     0.261   0.1% |
  rotate_psi_s:                      0.056     0.056   0.0% |
Set symmetry:                        0.010     0.010   0.0% |
Other:                               0.923     0.923   0.3% |
-----------------------------------------------------------
Total:                                       352.473 100.0%

Memory usage: 546.72 MiB
Date: Mon Jul 25 13:10:39 2022
