
  ___ ___ ___ _ _ _  
 |   |   |_  | | | | 
 | | | | | . | | | | 
 |__ |  _|___|_____|  22.1.0
 |___|_|             

User:   gabrielbirnbaum@Gabriels-MacBook-Pro.local
Date:   Tue Jul 26 09:05:50 2022
Arch:   x86_64
Pid:    92584
Python: 3.9.13
gpaw:   /Users/gabrielbirnbaum/PycharmProjects/nanolithia/venv/lib/python3.9/site-packages/gpaw
_gpaw:  /Users/gabrielbirnbaum/PycharmProjects/nanolithia/venv/lib/python3.9/site-packages/
        _gpaw.cpython-39-darwin.so
ase:    /Users/gabrielbirnbaum/PycharmProjects/nanolithia/venv/lib/python3.9/site-packages/ase (version 3.22.1)
numpy:  /Users/gabrielbirnbaum/PycharmProjects/nanolithia/venv/lib/python3.9/site-packages/numpy (version 1.23.0)
scipy:  /Users/gabrielbirnbaum/PycharmProjects/nanolithia/venv/lib/python3.9/site-packages/scipy (version 1.8.1)
libxc:  5.2.3
units:  Angstrom and eV
cores: 1
OpenMP: False
OMP_NUM_THREADS: 1

Input parameters:
  convergence: {density: 0.001,
                eigenstates: 0.0001,
                energy: 0.0002}
  kpts: {gamma: True,
         size: (4, 4, 4)}
  mode: {ecut: 900.0000000000001,
         name: pw}
  setups: {O: :p,0.33,0}
  spinpol: True

System changes: positions, numbers, cell, pbc, initial_charges, initial_magmoms 

Initialize ...

Li-setup:
  name: Lithium
  id: b73562207f97a71b6967473b66fe8b65
  Z: 3.0
  valence: 1
  core: 2
  charge: 0.0
  file: /Users/gabrielbirnbaum/dft_learning/DIR/gpaw-setups-0.9.20000/Li.LDA.gz
  compensation charges: gauss, rc=0.33, lmax=2
  cutoffs: 1.91(filt), 2.55(core),
  valence states:
                energy  radius
    2s(1.00)    -2.874   1.058
    2p(0.00)    -1.126   1.058
    *s          24.338   1.058

  Using partial waves for Li as LCAO basis

O-setup:
  name: Oxygen
  id: 9b9d51c344dea68c822856295a461509
  Z: 8.0
  valence: 6
  core: 2
  charge: 0.0
  Hubbard U: 0.330000 eV (l=1, scale=False)
  file: /Users/gabrielbirnbaum/dft_learning/DIR/gpaw-setups-0.9.20000/O.LDA.gz
  compensation charges: gauss, rc=0.21, lmax=2
  cutoffs: 1.17(filt), 0.83(core),
  valence states:
                energy  radius
    2s(2.00)   -23.752   0.688
    2p(4.00)    -9.195   0.598
    *s           3.459   0.688
    *p          18.016   0.598
    *d           0.000   0.619

  Using partial waves for O as LCAO basis

Reference energy: -8510.849865

Spin-polarized calculation.
Magnetic moment: 0.000000

Convergence criteria:
 Maximum [total energy] change in last 3 cyles: 0.0002 eV / electron
 Maximum integral of absolute [dens]ity change: 0.001 electrons / valence electron
 Maximum integral of absolute [eigenst]ate change: 0.0001 eV^2 / valence electron
 Maximum number of scf [iter]ations: 333
 (Square brackets indicate name in SCF output, whereas a 'c' in
 the SCF output indicates the quantity has converged.)

Symmetries present (total): 4

  ( 1  0  0)  ( 1  0  0)  (-1  0  0)  (-1  0  0)
  ( 0  1  0)  ( 0 -1  0)  ( 0  1  0)  ( 0 -1  0)
  ( 0  0  1)  ( 0  0 -1)  ( 0  0  1)  ( 0  0 -1)

64 k-points: 4 x 4 x 4 Monkhorst-Pack grid + [1/8,1/8,1/8]
30 k-points in the irreducible part of the Brillouin zone
       k-points in crystal coordinates                weights
   0:     0.00000000    0.00000000    0.00000000          1/64
   1:     0.00000000    0.00000000    0.25000000          2/64
   2:     0.00000000    0.00000000    0.50000000          1/64
   3:     0.00000000    0.25000000   -0.25000000          2/64
   4:     0.00000000    0.25000000    0.00000000          2/64
   5:     0.00000000    0.25000000    0.25000000          2/64
   6:     0.00000000    0.25000000    0.50000000          2/64
   7:     0.00000000    0.50000000    0.00000000          1/64
   8:     0.00000000    0.50000000    0.25000000          2/64
   9:     0.00000000    0.50000000    0.50000000          1/64
          ...
  29:     0.50000000    0.50000000    0.50000000          1/64

Wave functions: Plane wave expansion
  Cutoff energy: 900.000 eV
  Number of coefficients (min, max): 3527, 3580
  Pulay-stress correction: 0.000000 eV/Ang^3 (de/decut=0.000000)
  Using Numpy's FFT
  ScaLapack parameters: grid=1x1, blocksize=None
  Wavefunction extrapolation:
    Improved wavefunction reuse through dual PAW basis 

Occupation numbers: Fermi-Dirac: width=0.1000 eV
 

Eigensolver
   Davidson(niter=2) 

Densities:
  Coarse grid: 21*28*35 grid
  Fine grid: 42*56*70 grid
  Total Charge: 0.000000 

Density mixing:
  Method: difference
  Backend: pulay
  Linear mixing parameter: 0.05
  Mixing with 5 old densities
  Damping of long wave oscillations: 50 

Hamiltonian:
  XC and Coulomb potentials evaluated on a 42*56*70 grid
  Using the LDA Exchange-Correlation functional
  External potential:
    NoExternalPotential
 

Memory estimate:
  Process memory now: 1529.66 MiB
  Calculator: 100.92 MiB
    Density: 12.40 MiB
      Arrays: 5.50 MiB
      Localized functions: 4.71 MiB
      Mixer: 2.20 MiB
    Hamiltonian: 4.20 MiB
      Arrays: 4.08 MiB
      XC: 0.00 MiB
      Poisson: 0.00 MiB
      vbar: 0.11 MiB
    Wavefunctions: 84.33 MiB
      Arrays psit_nG: 65.55 MiB
      Eigensolver: 1.43 MiB
      Projections: 1.14 MiB
      Projectors: 13.79 MiB
      PW-descriptor: 2.42 MiB

Total number of cores used: 1

Number of atoms: 6
Number of atomic orbitals: 24
Number of bands in calculation: 20
Number of valence electrons: 26
Bands to converge: occupied

... initialized

Initializing position-dependent things.

Density initialized from atomic densities
Creating initial wave functions:
  20 bands from LCAO basis set

   .------.  
  /|      |  
 * | O    |  
 | O      |  
 | | Li   |  
 O |      |  
 | .--O---.  
 |/      /   
 Li-----*    

Positions:
   0 Li     1.480551    1.992835    2.448045    ( 0.0000,  0.0000,  0.0000)
   1 Li     0.000000    0.000000    0.000000    ( 0.0000,  0.0000,  0.0000)
   2 O      1.480551    2.518377    0.419218    ( 0.0000,  0.0000,  0.0000)
   3 O      1.480551    1.467292    4.476872    ( 0.0000,  0.0000,  0.0000)
   4 O      0.000000    0.525542    2.028827    ( 0.0000,  0.0000,  0.0000)
   5 O      0.000000    3.460127    2.867263    ( 0.0000,  0.0000,  0.0000)

Unit cell:
           periodic     x           y           z      points  spacing
  1. axis:    yes    2.961101    0.000000    0.000000    21     0.1410
  2. axis:    yes    0.000000    3.985669    0.000000    28     0.1423
  3. axis:    yes    0.000000    0.000000    4.896090    35     0.1399

  Lengths:   2.961101   3.985669   4.896090
  Angles:   90.000000  90.000000  90.000000

Effective grid spacing dv^(1/3) = 0.1411

     iter     time        total  log10-change:  magmom
                         energy  eigst   dens
iter:   1 09:06:57   -33.148506                  +0.0000
iter:   2 09:07:08   -33.040897  -1.56  -1.04    +0.0000
iter:   3 09:07:19   -32.337500  -1.50  -1.07    +0.0000
iter:   4 09:07:29   -32.340425  -1.98  -1.48    +0.0000
iter:   5 09:07:39   -32.285955  -2.39  -1.71    +0.0000
iter:   6 09:07:49   -32.286738  -3.26  -2.27    +0.0000
iter:   7 09:08:00   -32.291946  -2.61  -2.36    +0.0000
iter:   8 09:08:10   -32.285903  -3.79  -2.26    +0.0000
iter:   9 09:08:21   -32.286139  -5.45c -2.56    +0.0000
iter:  10 09:08:31   -32.284959c -4.41c -2.54    +0.0000
iter:  11 09:08:41   -32.284614c -5.00c -2.72    +0.0000
iter:  12 09:08:52   -32.284056c -3.79  -2.82    +0.0000
iter:  13 09:09:03   -32.284037c -5.15c -3.10c   +0.0000

Converged after 13 iterations.

Dipole moment: (-0.000000, -0.000000, -0.000000) |e|*Ang

Total magnetic moment: (0.000000, 0.000000, 0.000000)
Local magnetic moments:
   0 Li ( 0.000000,  0.000000,  0.000000)
   1 Li ( 0.000000,  0.000000,  0.000000)
   2 O  ( 0.000000,  0.000000,  0.000000)
   3 O  ( 0.000000,  0.000000,  0.000000)
   4 O  ( 0.000000,  0.000000,  0.000000)
   5 O  ( 0.000000,  0.000000,  0.000000)

Energy contributions relative to reference atoms: (reference = -8510.849865)

Kinetic:        +28.906147
Potential:      -31.253198
External:        +0.000000
XC:             -30.766671
Entropy (-ST):   -0.155634
Local:           +0.907502
--------------------------
Free energy:    -32.361854
Extrapolated:   -32.284037

Spin contamination: 0.000000 electrons
Showing only first 2 kpts
                      Up                     Down
 Kpt  Band  Eigenvalues  Occupancy  Eigenvalues  Occupancy
  0    11      1.80059    0.12135      1.80059    0.12135
  0    12      2.05970    0.01024      2.05970    0.01024
  0    13      2.15178    0.00410      2.15178    0.00410
  0    14      7.89513    0.00000      7.89513    0.00000

  1    11      1.44345    0.83086      1.44345    0.83086
  1    12      2.07736    0.00860      2.07736    0.00860
  1    13      2.14214    0.00452      2.14214    0.00452
  1    14      7.56143    0.00000      7.56143    0.00000


Fermi level: 1.60262

No gap
Timing:                              incl.     excl.
-----------------------------------------------------------
Hamiltonian:                         0.125     0.004   0.0% |
 Atomic:                             0.060     0.003   0.0% |
  XC Correction:                     0.057     0.057   0.0% |
 Calculate atomic Hamiltonians:      0.020     0.020   0.0% |
 Communicate:                        0.000     0.000   0.0% |
 Initialize Hamiltonian:             0.000     0.000   0.0% |
 Poisson:                            0.000     0.000   0.0% |
 XC 3D grid:                         0.041     0.041   0.0% |
LCAO initialization:                57.347     0.036   0.0% |
 LCAO eigensolver:                  50.643     0.003   0.0% |
  Calculate projections:             0.003     0.003   0.0% |
  DenseAtomicCorrection:             0.010     0.010   0.0% |
  Distribute overlap matrix:         0.001     0.001   0.0% |
  Orbital Layouts:                   0.022     0.022   0.0% |
  Potential matrix:                 50.565    50.565  26.0% |---------|
  Sum over cells:                    0.037     0.037   0.0% |
 LCAO to grid:                       6.120     6.120   3.2% ||
 Set positions (LCAO WFS):           0.548     0.089   0.0% |
  Basic WFS set positions:           0.001     0.001   0.0% |
  Basis functions set positions:     0.000     0.000   0.0% |
  P tci:                             0.191     0.191   0.1% |
  ST tci:                            0.243     0.243   0.1% |
  mktci:                             0.025     0.025   0.0% |
PWDescriptor:                        0.030     0.030   0.0% |
SCF-cycle:                         135.679     0.262   0.1% |
 Davidson:                         121.304    12.973   6.7% |--|
  Apply H:                          26.493    25.158  13.0% |----|
   HMM T:                            1.334     1.334   0.7% |
  Subspace diag:                    27.202     0.048   0.0% |
   calc_h_matrix:                   26.335     0.767   0.4% |
    Apply H:                        25.568    25.292  13.0% |----|
     HMM T:                          0.276     0.276   0.1% |
   diagonalize:                      0.168     0.168   0.1% |
   rotate_psi:                       0.651     0.651   0.3% |
  calc. matrices:                   52.717     4.428   2.3% ||
   Apply H:                         48.289    47.668  24.5% |---------|
    HMM T:                           0.621     0.621   0.3% |
  diagonalize:                       0.705     0.705   0.4% |
  rotate_psi:                        1.215     1.215   0.6% |
 Density:                           12.285     0.000   0.0% |
  Atomic density matrices:           0.068     0.068   0.0% |
  Mix:                               0.471     0.471   0.2% |
  Multipole moments:                 0.002     0.002   0.0% |
  Pseudo density:                   11.745    11.696   6.0% |-|
   Symmetrize density:               0.049     0.049   0.0% |
 Hamiltonian:                        1.525     0.044   0.0% |
  Atomic:                            0.686     0.044   0.0% |
   XC Correction:                    0.641     0.641   0.3% |
  Calculate atomic Hamiltonians:     0.232     0.232   0.1% |
  Communicate:                       0.000     0.000   0.0% |
  Poisson:                           0.007     0.007   0.0% |
  XC 3D grid:                        0.556     0.556   0.3% |
 Orthonormalize:                     0.302     0.004   0.0% |
  calc_s_matrix:                     0.072     0.072   0.0% |
  inverse-cholesky:                  0.005     0.005   0.0% |
  projections:                       0.195     0.195   0.1% |
  rotate_psi_s:                      0.026     0.026   0.0% |
Set symmetry:                        0.002     0.002   0.0% |
Other:                               1.050     1.050   0.5% |
-----------------------------------------------------------
Total:                                       194.233 100.0%

Memory usage: 1.49 GiB
Date: Tue Jul 26 09:09:04 2022
