
  ___ ___ ___ _ _ _  
 |   |   |_  | | | | 
 | | | | | . | | | | 
 |__ |  _|___|_____|  22.1.0
 |___|_|             

User:   gabrielbirnbaum@Gabriels-MacBook-Pro.local
Date:   Tue Jul 26 08:21:32 2022
Arch:   x86_64
Pid:    92584
Python: 3.9.13
gpaw:   /Users/gabrielbirnbaum/PycharmProjects/nanolithia/venv/lib/python3.9/site-packages/gpaw
_gpaw:  /Users/gabrielbirnbaum/PycharmProjects/nanolithia/venv/lib/python3.9/site-packages/
        _gpaw.cpython-39-darwin.so
ase:    /Users/gabrielbirnbaum/PycharmProjects/nanolithia/venv/lib/python3.9/site-packages/ase (version 3.22.1)
numpy:  /Users/gabrielbirnbaum/PycharmProjects/nanolithia/venv/lib/python3.9/site-packages/numpy (version 1.23.0)
scipy:  /Users/gabrielbirnbaum/PycharmProjects/nanolithia/venv/lib/python3.9/site-packages/scipy (version 1.8.1)
libxc:  5.2.3
units:  Angstrom and eV
cores: 1
OpenMP: False
OMP_NUM_THREADS: 1

Input parameters:
  convergence: {density: 0.001,
                eigenstates: 0.0001,
                energy: 0.0002}
  kpts: {gamma: True,
         size: (10, 10, 10)}
  mode: {ecut: 500.0,
         name: pw}
  setups: {O: :p,0.33,0}
  spinpol: True

System changes: positions, numbers, cell, pbc, initial_charges, initial_magmoms 

Initialize ...

Li-setup:
  name: Lithium
  id: b73562207f97a71b6967473b66fe8b65
  Z: 3.0
  valence: 1
  core: 2
  charge: 0.0
  file: /Users/gabrielbirnbaum/dft_learning/DIR/gpaw-setups-0.9.20000/Li.LDA.gz
  compensation charges: gauss, rc=0.33, lmax=2
  cutoffs: 1.91(filt), 2.55(core),
  valence states:
                energy  radius
    2s(1.00)    -2.874   1.058
    2p(0.00)    -1.126   1.058
    *s          24.338   1.058

  Using partial waves for Li as LCAO basis

O-setup:
  name: Oxygen
  id: 9b9d51c344dea68c822856295a461509
  Z: 8.0
  valence: 6
  core: 2
  charge: 0.0
  Hubbard U: 0.330000 eV (l=1, scale=False)
  file: /Users/gabrielbirnbaum/dft_learning/DIR/gpaw-setups-0.9.20000/O.LDA.gz
  compensation charges: gauss, rc=0.21, lmax=2
  cutoffs: 1.17(filt), 0.83(core),
  valence states:
                energy  radius
    2s(2.00)   -23.752   0.688
    2p(4.00)    -9.195   0.598
    *s           3.459   0.688
    *p          18.016   0.598
    *d           0.000   0.619

  Using partial waves for O as LCAO basis

Reference energy: -8510.849865

Spin-polarized calculation.
Magnetic moment: 0.000000

Convergence criteria:
 Maximum [total energy] change in last 3 cyles: 0.0002 eV / electron
 Maximum integral of absolute [dens]ity change: 0.001 electrons / valence electron
 Maximum integral of absolute [eigenst]ate change: 0.0001 eV^2 / valence electron
 Maximum number of scf [iter]ations: 333
 (Square brackets indicate name in SCF output, whereas a 'c' in
 the SCF output indicates the quantity has converged.)

Symmetries present (total): 4

  ( 1  0  0)  ( 1  0  0)  (-1  0  0)  (-1  0  0)
  ( 0  1  0)  ( 0 -1  0)  ( 0  1  0)  ( 0 -1  0)
  ( 0  0  1)  ( 0  0 -1)  ( 0  0  1)  ( 0  0 -1)

1000 k-points: 10 x 10 x 10 Monkhorst-Pack grid + [1/20,1/20,1/20]
312 k-points in the irreducible part of the Brillouin zone
       k-points in crystal coordinates                weights
   0:     0.00000000    0.00000000    0.00000000          1/1000
   1:     0.00000000    0.00000000    0.10000000          2/1000
   2:     0.00000000    0.00000000    0.20000000          2/1000
   3:     0.00000000    0.00000000    0.30000000          2/1000
   4:     0.00000000    0.00000000    0.40000000          2/1000
   5:     0.00000000    0.00000000    0.50000000          1/1000
   6:     0.00000000    0.10000000   -0.40000000          2/1000
   7:     0.00000000    0.10000000   -0.30000000          2/1000
   8:     0.00000000    0.10000000   -0.20000000          2/1000
   9:     0.00000000    0.10000000   -0.10000000          2/1000
          ...
 311:     0.50000000    0.50000000    0.50000000          1/1000

Wave functions: Plane wave expansion
  Cutoff energy: 500.000 eV
  Number of coefficients (min, max): 1436, 1492
  Pulay-stress correction: 0.000000 eV/Ang^3 (de/decut=0.000000)
  Using Numpy's FFT
  ScaLapack parameters: grid=1x1, blocksize=None
  Wavefunction extrapolation:
    Improved wavefunction reuse through dual PAW basis 

Occupation numbers: Fermi-Dirac: width=0.1000 eV
 

Eigensolver
   Davidson(niter=2) 

Densities:
  Coarse grid: 16*21*27 grid
  Fine grid: 32*42*54 grid
  Total Charge: 0.000000 

Density mixing:
  Method: difference
  Backend: pulay
  Linear mixing parameter: 0.05
  Mixing with 5 old densities
  Damping of long wave oscillations: 50 

Hamiltonian:
  XC and Coulomb potentials evaluated on a 32*42*54 grid
  Using the LDA Exchange-Correlation functional
  External potential:
    NoExternalPotential
 

Memory estimate:
  Process memory now: 1424.09 MiB
  Calculator: 370.56 MiB
    Density: 5.34 MiB
      Arrays: 2.42 MiB
      Localized functions: 1.95 MiB
      Mixer: 0.97 MiB
    Hamiltonian: 1.85 MiB
      Arrays: 1.80 MiB
      XC: 0.00 MiB
      Poisson: 0.00 MiB
      vbar: 0.05 MiB
    Wavefunctions: 363.37 MiB
      Arrays psit_nG: 284.12 MiB
      Eigensolver: 0.63 MiB
      Projections: 11.81 MiB
      Projectors: 59.36 MiB
      PW-descriptor: 7.45 MiB

Total number of cores used: 1

Number of atoms: 6
Number of atomic orbitals: 24
Number of bands in calculation: 20
Number of valence electrons: 26
Bands to converge: occupied

... initialized

Initializing position-dependent things.

Density initialized from atomic densities
Creating initial wave functions:
  20 bands from LCAO basis set

   .------.  
  /|      |  
 * | O    |  
 | O      |  
 | | Li   |  
 O |      |  
 | .--O---.  
 |/      /   
 Li-----*    

Positions:
   0 Li     1.480551    1.992835    2.448045    ( 0.0000,  0.0000,  0.0000)
   1 Li     0.000000    0.000000    0.000000    ( 0.0000,  0.0000,  0.0000)
   2 O      1.480551    2.518377    0.419218    ( 0.0000,  0.0000,  0.0000)
   3 O      1.480551    1.467292    4.476872    ( 0.0000,  0.0000,  0.0000)
   4 O      0.000000    0.525542    2.028827    ( 0.0000,  0.0000,  0.0000)
   5 O      0.000000    3.460127    2.867263    ( 0.0000,  0.0000,  0.0000)

Unit cell:
           periodic     x           y           z      points  spacing
  1. axis:    yes    2.961101    0.000000    0.000000    16     0.1851
  2. axis:    yes    0.000000    3.985669    0.000000    21     0.1898
  3. axis:    yes    0.000000    0.000000    4.896090    27     0.1813

  Lengths:   2.961101   3.985669   4.896090
  Angles:   90.000000  90.000000  90.000000

Effective grid spacing dv^(1/3) = 0.1854

     iter     time        total  log10-change:  magmom
                         energy  eigst   dens
iter:   1 08:27:03   -31.338254                  +0.0000
iter:   2 08:27:51   -31.232097  -1.73  -1.03    +0.0000
iter:   3 08:28:41   -30.520108  -1.59  -1.07    +0.0000
iter:   4 08:29:29   -30.502089  -2.26  -1.50    +0.0000
iter:   5 08:30:18   -30.478769  -2.67  -1.72    +0.0000
iter:   6 08:31:09   -30.474848  -3.75  -2.19    +0.0000
iter:   7 08:31:57   -30.473679c -4.03c -2.53    +0.0000
iter:   8 08:32:47   -30.473819c -4.79c -2.88    +0.0000
iter:   9 08:33:39   -30.473688c -4.86c -2.97    +0.0000
iter:  10 08:34:28   -30.473549c -5.94c -3.21c   +0.0000

Converged after 10 iterations.

Dipole moment: (0.000000, 0.000000, 0.000000) |e|*Ang

Total magnetic moment: (0.000000, 0.000000, 0.000000)
Local magnetic moments:
   0 Li ( 0.000000,  0.000000,  0.000000)
   1 Li ( 0.000000,  0.000000,  0.000000)
   2 O  ( 0.000000,  0.000000,  0.000000)
   3 O  ( 0.000000,  0.000000,  0.000000)
   4 O  ( 0.000000,  0.000000,  0.000000)
   5 O  ( 0.000000,  0.000000,  0.000000)

Energy contributions relative to reference atoms: (reference = -8510.849865)

Kinetic:        +17.169089
Potential:      -17.700685
External:        +0.000000
XC:             -30.014369
Entropy (-ST):   -0.173685
Local:           +0.159258
--------------------------
Free energy:    -30.560392
Extrapolated:   -30.473549

Spin contamination: 0.000000 electrons
Showing only first 2 kpts
                      Up                     Down
 Kpt  Band  Eigenvalues  Occupancy  Eigenvalues  Occupancy
  0    11      1.85644    0.13383      1.85644    0.13383
  0    12      2.05244    0.02130      2.05244    0.02130
  0    13      2.14384    0.00865      2.14384    0.00865
  0    14      7.89387    0.00000      7.89387    0.00000

  1    11      1.78756    0.23527      1.78756    0.23527
  1    12      2.05559    0.02065      2.05559    0.02065
  1    13      2.14550    0.00851      2.14550    0.00851
  1    14      7.82786    0.00000      7.82786    0.00000


Fermi level: 1.66968

No gap
Timing:                              incl.     excl.
-----------------------------------------------------------
Hamiltonian:                         0.078     0.001   0.0% |
 Atomic:                             0.056     0.003   0.0% |
  XC Correction:                     0.053     0.053   0.0% |
 Calculate atomic Hamiltonians:      0.005     0.005   0.0% |
 Communicate:                        0.000     0.000   0.0% |
 Initialize Hamiltonian:             0.000     0.000   0.0% |
 Poisson:                            0.000     0.000   0.0% |
 XC 3D grid:                         0.016     0.016   0.0% |
LCAO initialization:               285.158     0.038   0.0% |
 LCAO eigensolver:                 253.374     0.030   0.0% |
  Calculate projections:             0.046     0.046   0.0% |
  DenseAtomicCorrection:             0.107     0.107   0.0% |
  Distribute overlap matrix:         0.014     0.014   0.0% |
  Orbital Layouts:                   0.300     0.300   0.0% |
  Potential matrix:                252.485   252.485  32.6% |------------|
  Sum over cells:                    0.391     0.391   0.1% |
 LCAO to grid:                      28.065    28.065   3.6% ||
 Set positions (LCAO WFS):           3.680     0.522   0.1% |
  Basic WFS set positions:           0.001     0.001   0.0% |
  Basis functions set positions:     0.000     0.000   0.0% |
  P tci:                             1.371     1.371   0.2% |
  ST tci:                            1.762     1.762   0.2% |
  mktci:                             0.025     0.025   0.0% |
PWDescriptor:                        0.127     0.127   0.0% |
SCF-cycle:                         488.325     1.820   0.2% |
 Davidson:                         445.810    31.601   4.1% |-|
  Apply H:                          97.035    95.744  12.3% |----|
   HMM T:                            1.291     1.291   0.2% |
  Subspace diag:                    99.541     0.344   0.0% |
   calc_h_matrix:                   95.860     2.208   0.3% |
    Apply H:                        93.652    92.324  11.9% |----|
     HMM T:                          1.328     1.328   0.2% |
   diagonalize:                      1.147     1.147   0.1% |
   rotate_psi:                       2.190     2.190   0.3% |
  calc. matrices:                  208.252    21.008   2.7% ||
   Apply H:                        187.244   184.730  23.8% |---------|
    HMM T:                           2.514     2.514   0.3% |
  diagonalize:                       5.320     5.320   0.7% |
  rotate_psi:                        4.062     4.062   0.5% |
 Density:                           38.776     0.000   0.0% |
  Atomic density matrices:           0.397     0.397   0.1% |
  Mix:                               0.121     0.121   0.0% |
  Multipole moments:                 0.001     0.001   0.0% |
  Pseudo density:                   38.256    38.242   4.9% |-|
   Symmetrize density:               0.014     0.014   0.0% |
 Hamiltonian:                        0.668     0.007   0.0% |
  Atomic:                            0.481     0.025   0.0% |
   XC Correction:                    0.457     0.457   0.1% |
  Calculate atomic Hamiltonians:     0.039     0.039   0.0% |
  Communicate:                       0.000     0.000   0.0% |
  Poisson:                           0.002     0.002   0.0% |
  XC 3D grid:                        0.139     0.139   0.0% |
 Orthonormalize:                     1.251     0.039   0.0% |
  calc_s_matrix:                     0.569     0.569   0.1% |
  inverse-cholesky:                  0.042     0.042   0.0% |
  projections:                       0.494     0.494   0.1% |
  rotate_psi_s:                      0.107     0.107   0.0% |
Set symmetry:                        0.017     0.017   0.0% |
Other:                               1.679     1.679   0.2% |
-----------------------------------------------------------
Total:                                       775.383 100.0%

Memory usage: 1.43 GiB
Date: Tue Jul 26 08:34:28 2022
