
  ___ ___ ___ _ _ _  
 |   |   |_  | | | | 
 | | | | | . | | | | 
 |__ |  _|___|_____|  22.1.0
 |___|_|             

User:   gabrielbirnbaum@Gabriels-MacBook-Pro.local
Date:   Mon Jul 25 13:19:12 2022
Arch:   x86_64
Pid:    92584
Python: 3.9.13
gpaw:   /Users/gabrielbirnbaum/PycharmProjects/nanolithia/venv/lib/python3.9/site-packages/gpaw
_gpaw:  /Users/gabrielbirnbaum/PycharmProjects/nanolithia/venv/lib/python3.9/site-packages/
        _gpaw.cpython-39-darwin.so
ase:    /Users/gabrielbirnbaum/PycharmProjects/nanolithia/venv/lib/python3.9/site-packages/ase (version 3.22.1)
numpy:  /Users/gabrielbirnbaum/PycharmProjects/nanolithia/venv/lib/python3.9/site-packages/numpy (version 1.23.0)
scipy:  /Users/gabrielbirnbaum/PycharmProjects/nanolithia/venv/lib/python3.9/site-packages/scipy (version 1.8.1)
libxc:  5.2.3
units:  Angstrom and eV
cores: 1
OpenMP: False
OMP_NUM_THREADS: 1

Input parameters:
  convergence: {density: 0.001,
                eigenstates: 0.0001,
                energy: 0.0002}
  kpts: {gamma: True,
         size: (8, 8, 8)}
  mode: {ecut: 550.0,
         name: pw}
  setups: {O: :p,0.33,0}
  spinpol: True

System changes: positions, numbers, cell, pbc, initial_charges, initial_magmoms 

Initialize ...

Li-setup:
  name: Lithium
  id: b73562207f97a71b6967473b66fe8b65
  Z: 3.0
  valence: 1
  core: 2
  charge: 0.0
  file: /Users/gabrielbirnbaum/dft_learning/DIR/gpaw-setups-0.9.20000/Li.LDA.gz
  compensation charges: gauss, rc=0.33, lmax=2
  cutoffs: 1.91(filt), 2.55(core),
  valence states:
                energy  radius
    2s(1.00)    -2.874   1.058
    2p(0.00)    -1.126   1.058
    *s          24.338   1.058

  Using partial waves for Li as LCAO basis

O-setup:
  name: Oxygen
  id: 9b9d51c344dea68c822856295a461509
  Z: 8.0
  valence: 6
  core: 2
  charge: 0.0
  Hubbard U: 0.330000 eV (l=1, scale=False)
  file: /Users/gabrielbirnbaum/dft_learning/DIR/gpaw-setups-0.9.20000/O.LDA.gz
  compensation charges: gauss, rc=0.21, lmax=2
  cutoffs: 1.17(filt), 0.83(core),
  valence states:
                energy  radius
    2s(2.00)   -23.752   0.688
    2p(4.00)    -9.195   0.598
    *s           3.459   0.688
    *p          18.016   0.598
    *d           0.000   0.619

  Using partial waves for O as LCAO basis

Reference energy: -8510.849865

Spin-polarized calculation.
Magnetic moment: 0.000000

Convergence criteria:
 Maximum [total energy] change in last 3 cyles: 0.0002 eV / electron
 Maximum integral of absolute [dens]ity change: 0.001 electrons / valence electron
 Maximum integral of absolute [eigenst]ate change: 0.0001 eV^2 / valence electron
 Maximum number of scf [iter]ations: 333
 (Square brackets indicate name in SCF output, whereas a 'c' in
 the SCF output indicates the quantity has converged.)

Symmetries present (total): 4

  ( 1  0  0)  ( 1  0  0)  (-1  0  0)  (-1  0  0)
  ( 0  1  0)  ( 0 -1  0)  ( 0  1  0)  ( 0 -1  0)
  ( 0  0  1)  ( 0  0 -1)  ( 0  0  1)  ( 0  0 -1)

512 k-points: 8 x 8 x 8 Monkhorst-Pack grid + [1/16,1/16,1/16]
170 k-points in the irreducible part of the Brillouin zone
       k-points in crystal coordinates                weights
   0:     0.00000000    0.00000000    0.00000000          1/512
   1:     0.00000000    0.00000000    0.12500000          2/512
   2:     0.00000000    0.00000000    0.25000000          2/512
   3:     0.00000000    0.00000000    0.37500000          2/512
   4:     0.00000000    0.00000000    0.50000000          1/512
   5:     0.00000000    0.12500000   -0.37500000          2/512
   6:     0.00000000    0.12500000   -0.25000000          2/512
   7:     0.00000000    0.12500000   -0.12500000          2/512
   8:     0.00000000    0.12500000    0.00000000          2/512
   9:     0.00000000    0.12500000    0.12500000          2/512
          ...
 169:     0.50000000    0.50000000    0.50000000          1/512

Wave functions: Plane wave expansion
  Cutoff energy: 550.000 eV
  Number of coefficients (min, max): 1668, 1714
  Pulay-stress correction: 0.000000 eV/Ang^3 (de/decut=0.000000)
  Using Numpy's FFT
  ScaLapack parameters: grid=1x1, blocksize=None
  Wavefunction extrapolation:
    Improved wavefunction reuse through dual PAW basis 

Occupation numbers: Fermi-Dirac: width=0.1000 eV
 

Eigensolver
   Davidson(niter=2) 

Densities:
  Coarse grid: 18*24*27 grid
  Fine grid: 36*48*54 grid
  Total Charge: 0.000000 

Density mixing:
  Method: difference
  Backend: pulay
  Linear mixing parameter: 0.05
  Mixing with 5 old densities
  Damping of long wave oscillations: 50 

Hamiltonian:
  XC and Coulomb potentials evaluated on a 36*48*54 grid
  Using the LDA Exchange-Correlation functional
  External potential:
    NoExternalPotential
 

Memory estimate:
  Process memory now: 601.87 MiB
  Calculator: 236.17 MiB
    Density: 6.60 MiB
      Arrays: 3.11 MiB
      Localized functions: 2.24 MiB
      Mixer: 1.25 MiB
    Hamiltonian: 2.37 MiB
      Arrays: 2.31 MiB
      XC: 0.00 MiB
      Poisson: 0.00 MiB
      vbar: 0.05 MiB
    Wavefunctions: 227.20 MiB
      Arrays psit_nG: 177.84 MiB
      Eigensolver: 0.72 MiB
      Projections: 6.43 MiB
      Projectors: 37.32 MiB
      PW-descriptor: 4.89 MiB

Total number of cores used: 1

Number of atoms: 6
Number of atomic orbitals: 24
Number of bands in calculation: 20
Number of valence electrons: 26
Bands to converge: occupied

... initialized

Initializing position-dependent things.

Density initialized from atomic densities
Creating initial wave functions:
  20 bands from LCAO basis set

   .------.  
  /|      |  
 * | O    |  
 | O      |  
 | | Li   |  
 O |      |  
 | .--O---.  
 |/      /   
 Li-----*    

Positions:
   0 Li     1.480551    1.992835    2.448045    ( 0.0000,  0.0000,  0.0000)
   1 Li     0.000000    0.000000    0.000000    ( 0.0000,  0.0000,  0.0000)
   2 O      1.480551    2.518377    0.419218    ( 0.0000,  0.0000,  0.0000)
   3 O      1.480551    1.467292    4.476872    ( 0.0000,  0.0000,  0.0000)
   4 O      0.000000    0.525542    2.028827    ( 0.0000,  0.0000,  0.0000)
   5 O      0.000000    3.460127    2.867263    ( 0.0000,  0.0000,  0.0000)

Unit cell:
           periodic     x           y           z      points  spacing
  1. axis:    yes    2.961101    0.000000    0.000000    18     0.1645
  2. axis:    yes    0.000000    3.985669    0.000000    24     0.1661
  3. axis:    yes    0.000000    0.000000    4.896090    27     0.1813

  Lengths:   2.961101   3.985669   4.896090
  Angles:   90.000000  90.000000  90.000000

Effective grid spacing dv^(1/3) = 0.1705

     iter     time        total  log10-change:  magmom
                         energy  eigst   dens
iter:   1 13:23:28   -32.323335                  +0.0000
iter:   2 13:24:13   -32.211558  -1.71  -1.03    +0.0000
iter:   3 13:24:58   -31.478521  -1.55  -1.06    +0.0000
iter:   4 13:25:45   -31.464747  -2.18  -1.50    +0.0000
iter:   5 13:26:38   -31.450135  -2.30  -1.71    +0.0000
iter:   6 13:27:25   -31.436480  -3.80  -1.99    +0.0000
iter:   7 13:28:16   -31.435519  -5.17c -2.25    +0.0000
iter:   8 13:29:03   -31.432926c -3.08  -2.29    +0.0000
iter:   9 13:29:55   -31.431706c -4.63c -2.58    +0.0000
iter:  10 13:30:54   -31.431844c -6.34c -2.77    +0.0000
iter:  11 13:31:40   -31.431098c -4.14c -2.74    +0.0000
iter:  12 13:32:37   -31.431127c -6.02c -3.46c   +0.0000

Converged after 12 iterations.

Dipole moment: (0.000000, 0.000000, 0.000000) |e|*Ang

Total magnetic moment: (0.000000, 0.000000, 0.000000)
Local magnetic moments:
   0 Li ( 0.000000,  0.000000,  0.000000)
   1 Li ( 0.000000,  0.000000,  0.000000)
   2 O  ( 0.000000,  0.000000,  0.000000)
   3 O  ( 0.000000,  0.000000,  0.000000)
   4 O  ( 0.000000,  0.000000,  0.000000)
   5 O  ( 0.000000,  0.000000,  0.000000)

Energy contributions relative to reference atoms: (reference = -8510.849865)

Kinetic:        +22.773503
Potential:      -24.098863
External:        +0.000000
XC:             -30.425607
Entropy (-ST):   -0.172974
Local:           +0.406327
--------------------------
Free energy:    -31.517614
Extrapolated:   -31.431127

Spin contamination: 0.000000 electrons
Showing only first 2 kpts
                      Up                     Down
 Kpt  Band  Eigenvalues  Occupancy  Eigenvalues  Occupancy
  0    11      1.83663    0.15237      1.83663    0.15237
  0    12      2.03639    0.02380      2.03639    0.02380
  0    13      2.12782    0.00968      2.12782    0.00968
  0    14      7.89464    0.00000      7.89464    0.00000

  1    11      1.73884    0.32337      1.73884    0.32337
  1    12      2.04295    0.02233      2.04295    0.02233
  1    13      2.12459    0.00999      2.12459    0.00999
  1    14      7.79493    0.00000      7.79493    0.00000


Fermi level: 1.66501

No gap
Timing:                              incl.     excl.
-----------------------------------------------------------
Hamiltonian:                         0.104     0.001   0.0% |
 Atomic:                             0.070     0.004   0.0% |
  XC Correction:                     0.066     0.066   0.0% |
 Calculate atomic Hamiltonians:      0.007     0.007   0.0% |
 Communicate:                        0.000     0.000   0.0% |
 Initialize Hamiltonian:             0.000     0.000   0.0% |
 Poisson:                            0.000     0.000   0.0% |
 XC 3D grid:                         0.026     0.026   0.0% |
LCAO initialization:               215.192     0.043   0.0% |
 LCAO eigensolver:                 191.557     0.016   0.0% |
  Calculate projections:             0.020     0.020   0.0% |
  DenseAtomicCorrection:             0.056     0.056   0.0% |
  Distribute overlap matrix:         0.008     0.008   0.0% |
  Orbital Layouts:                   0.150     0.150   0.0% |
  Potential matrix:                191.123   191.123  23.7% |--------|
  Sum over cells:                    0.185     0.185   0.0% |
 LCAO to grid:                      20.772    20.772   2.6% ||
 Set positions (LCAO WFS):           2.820     0.411   0.1% |
  Basic WFS set positions:           0.001     0.001   0.0% |
  Basis functions set positions:     0.000     0.000   0.0% |
  P tci:                             1.121     1.121   0.1% |
  ST tci:                            1.258     1.258   0.2% |
  mktci:                             0.029     0.029   0.0% |
PWDescriptor:                        0.055     0.055   0.0% |
SCF-cycle:                         588.754     2.251   0.3% |
 Davidson:                         532.502    32.759   4.1% |-|
  Apply H:                         117.097   115.749  14.4% |-----|
   HMM T:                            1.348     1.348   0.2% |
  Subspace diag:                   123.767     0.337   0.0% |
   calc_h_matrix:                  119.613     2.630   0.3% |
    Apply H:                       116.983   115.622  14.4% |-----|
     HMM T:                          1.361     1.361   0.2% |
   diagonalize:                      1.470     1.470   0.2% |
   rotate_psi:                       2.347     2.347   0.3% |
  calc. matrices:                  247.694    17.534   2.2% ||
   Apply H:                        230.160   227.519  28.2% |----------|
    HMM T:                           2.641     2.641   0.3% |
  diagonalize:                       6.897     6.897   0.9% |
  rotate_psi:                        4.289     4.289   0.5% |
 Density:                           51.812     0.000   0.0% |
  Atomic density matrices:           0.418     0.418   0.1% |
  Mix:                               0.303     0.303   0.0% |
  Multipole moments:                 0.002     0.002   0.0% |
  Pseudo density:                   51.089    51.056   6.3% |--|
   Symmetrize density:               0.032     0.032   0.0% |
 Hamiltonian:                        1.451     0.015   0.0% |
  Atomic:                            0.946     0.064   0.0% |
   XC Correction:                    0.882     0.882   0.1% |
  Calculate atomic Hamiltonians:     0.126     0.126   0.0% |
  Communicate:                       0.000     0.000   0.0% |
  Poisson:                           0.006     0.006   0.0% |
  XC 3D grid:                        0.358     0.358   0.0% |
 Orthonormalize:                     0.738     0.027   0.0% |
  calc_s_matrix:                     0.214     0.214   0.0% |
  inverse-cholesky:                  0.029     0.029   0.0% |
  projections:                       0.382     0.382   0.0% |
  rotate_psi_s:                      0.085     0.085   0.0% |
Set symmetry:                        0.011     0.011   0.0% |
Other:                               1.582     1.582   0.2% |
-----------------------------------------------------------
Total:                                       805.697 100.0%

Memory usage: 709.38 MiB
Date: Mon Jul 25 13:32:38 2022
