
  ___ ___ ___ _ _ _  
 |   |   |_  | | | | 
 | | | | | . | | | | 
 |__ |  _|___|_____|  22.1.0
 |___|_|             

User:   gabrielbirnbaum@Gabriels-MacBook-Pro.local
Date:   Tue Jul 26 01:07:14 2022
Arch:   x86_64
Pid:    92584
Python: 3.9.13
gpaw:   /Users/gabrielbirnbaum/PycharmProjects/nanolithia/venv/lib/python3.9/site-packages/gpaw
_gpaw:  /Users/gabrielbirnbaum/PycharmProjects/nanolithia/venv/lib/python3.9/site-packages/
        _gpaw.cpython-39-darwin.so
ase:    /Users/gabrielbirnbaum/PycharmProjects/nanolithia/venv/lib/python3.9/site-packages/ase (version 3.22.1)
numpy:  /Users/gabrielbirnbaum/PycharmProjects/nanolithia/venv/lib/python3.9/site-packages/numpy (version 1.23.0)
scipy:  /Users/gabrielbirnbaum/PycharmProjects/nanolithia/venv/lib/python3.9/site-packages/scipy (version 1.8.1)
libxc:  5.2.3
units:  Angstrom and eV
cores: 1
OpenMP: False
OMP_NUM_THREADS: 1

Input parameters:
  convergence: {density: 0.001,
                eigenstates: 0.0001,
                energy: 0.0002}
  kpts: {gamma: True,
         size: (6, 6, 6)}
  mode: {ecut: 500.0,
         name: pw}
  setups: {O: :p,0.33,0}
  spinpol: True

System changes: positions, numbers, cell, pbc, initial_charges, initial_magmoms 

Initialize ...

Li-setup:
  name: Lithium
  id: b73562207f97a71b6967473b66fe8b65
  Z: 3.0
  valence: 1
  core: 2
  charge: 0.0
  file: /Users/gabrielbirnbaum/dft_learning/DIR/gpaw-setups-0.9.20000/Li.LDA.gz
  compensation charges: gauss, rc=0.33, lmax=2
  cutoffs: 1.91(filt), 2.55(core),
  valence states:
                energy  radius
    2s(1.00)    -2.874   1.058
    2p(0.00)    -1.126   1.058
    *s          24.338   1.058

  Using partial waves for Li as LCAO basis

O-setup:
  name: Oxygen
  id: 9b9d51c344dea68c822856295a461509
  Z: 8.0
  valence: 6
  core: 2
  charge: 0.0
  Hubbard U: 0.330000 eV (l=1, scale=False)
  file: /Users/gabrielbirnbaum/dft_learning/DIR/gpaw-setups-0.9.20000/O.LDA.gz
  compensation charges: gauss, rc=0.21, lmax=2
  cutoffs: 1.17(filt), 0.83(core),
  valence states:
                energy  radius
    2s(2.00)   -23.752   0.688
    2p(4.00)    -9.195   0.598
    *s           3.459   0.688
    *p          18.016   0.598
    *d           0.000   0.619

  Using partial waves for O as LCAO basis

Reference energy: -8510.849865

Spin-polarized calculation.
Magnetic moment: 0.000000

Convergence criteria:
 Maximum [total energy] change in last 3 cyles: 0.0002 eV / electron
 Maximum integral of absolute [dens]ity change: 0.001 electrons / valence electron
 Maximum integral of absolute [eigenst]ate change: 0.0001 eV^2 / valence electron
 Maximum number of scf [iter]ations: 333
 (Square brackets indicate name in SCF output, whereas a 'c' in
 the SCF output indicates the quantity has converged.)

Symmetries present (total): 4

  ( 1  0  0)  ( 1  0  0)  (-1  0  0)  (-1  0  0)
  ( 0  1  0)  ( 0 -1  0)  ( 0  1  0)  ( 0 -1  0)
  ( 0  0  1)  ( 0  0 -1)  ( 0  0  1)  ( 0  0 -1)

216 k-points: 6 x 6 x 6 Monkhorst-Pack grid + [1/12,1/12,1/12]
80 k-points in the irreducible part of the Brillouin zone
       k-points in crystal coordinates                weights
   0:     0.00000000    0.00000000    0.00000000          1/216
   1:     0.00000000    0.00000000    0.16666667          2/216
   2:     0.00000000    0.00000000    0.33333333          2/216
   3:     0.00000000    0.00000000    0.50000000          1/216
   4:     0.00000000    0.16666667   -0.33333333          2/216
   5:     0.00000000    0.16666667   -0.16666667          2/216
   6:     0.00000000    0.16666667    0.00000000          2/216
   7:     0.00000000    0.16666667    0.16666667          2/216
   8:     0.00000000    0.16666667    0.33333333          2/216
   9:     0.00000000    0.16666667    0.50000000          2/216
          ...
  79:     0.50000000    0.50000000    0.50000000          1/216

Wave functions: Plane wave expansion
  Cutoff energy: 500.000 eV
  Number of coefficients (min, max): 1440, 1496
  Pulay-stress correction: 0.000000 eV/Ang^3 (de/decut=0.000000)
  Using Numpy's FFT
  ScaLapack parameters: grid=1x1, blocksize=None
  Wavefunction extrapolation:
    Improved wavefunction reuse through dual PAW basis 

Occupation numbers: Fermi-Dirac: width=0.1000 eV
 

Eigensolver
   Davidson(niter=2) 

Densities:
  Coarse grid: 16*21*27 grid
  Fine grid: 32*42*54 grid
  Total Charge: 0.000000 

Density mixing:
  Method: difference
  Backend: pulay
  Linear mixing parameter: 0.05
  Mixing with 5 old densities
  Damping of long wave oscillations: 50 

Hamiltonian:
  XC and Coulomb potentials evaluated on a 32*42*54 grid
  Using the LDA Exchange-Correlation functional
  External potential:
    NoExternalPotential
 

Memory estimate:
  Process memory now: 1379.01 MiB
  Calculator: 101.29 MiB
    Density: 5.34 MiB
      Arrays: 2.42 MiB
      Localized functions: 1.95 MiB
      Mixer: 0.97 MiB
    Hamiltonian: 1.85 MiB
      Arrays: 1.80 MiB
      XC: 0.00 MiB
      Poisson: 0.00 MiB
      vbar: 0.05 MiB
    Wavefunctions: 94.10 MiB
      Arrays psit_nG: 73.05 MiB
      Eigensolver: 0.63 MiB
      Projections: 3.03 MiB
      Projectors: 15.22 MiB
      PW-descriptor: 2.17 MiB

Total number of cores used: 1

Number of atoms: 6
Number of atomic orbitals: 24
Number of bands in calculation: 20
Number of valence electrons: 26
Bands to converge: occupied

... initialized

Initializing position-dependent things.

Density initialized from atomic densities
Creating initial wave functions:
  20 bands from LCAO basis set

   .------.  
  /|      |  
 * | O    |  
 | O      |  
 | | Li   |  
 O |      |  
 | .--O---.  
 |/      /   
 Li-----*    

Positions:
   0 Li     1.480551    1.992835    2.448045    ( 0.0000,  0.0000,  0.0000)
   1 Li     0.000000    0.000000    0.000000    ( 0.0000,  0.0000,  0.0000)
   2 O      1.480551    2.518377    0.419218    ( 0.0000,  0.0000,  0.0000)
   3 O      1.480551    1.467292    4.476872    ( 0.0000,  0.0000,  0.0000)
   4 O      0.000000    0.525542    2.028827    ( 0.0000,  0.0000,  0.0000)
   5 O      0.000000    3.460127    2.867263    ( 0.0000,  0.0000,  0.0000)

Unit cell:
           periodic     x           y           z      points  spacing
  1. axis:    yes    2.961101    0.000000    0.000000    16     0.1851
  2. axis:    yes    0.000000    3.985669    0.000000    21     0.1898
  3. axis:    yes    0.000000    0.000000    4.896090    27     0.1813

  Lengths:   2.961101   3.985669   4.896090
  Angles:   90.000000  90.000000  90.000000

Effective grid spacing dv^(1/3) = 0.1854

     iter     time        total  log10-change:  magmom
                         energy  eigst   dens
iter:   1 01:59:15   -31.328915                  +0.0000
iter:   2 02:00:14   -31.220575  -1.73  -1.03    +0.0000
iter:   3 02:01:15   -30.501569  -1.59  -1.06    +0.0000
iter:   4 02:02:15   -30.480837  -2.32  -1.49    +0.0000
iter:   5 02:03:10   -30.462321  -2.67  -1.69    +0.0000
iter:   6 02:04:00   -30.456644  -4.06c -2.08    +0.0000
iter:   7 02:04:49   -30.455069  -4.21c -2.30    +0.0000
iter:   8 02:05:37   -30.454265c -4.11c -2.49    +0.0000
iter:   9 02:06:33   -30.454301c -5.86c -2.95    +0.0000
iter:  10 02:07:34   -30.454128c -5.26c -2.99    +0.0000
iter:  11 02:08:24   -30.454042c -5.72c -3.33c   +0.0000

Converged after 11 iterations.

Dipole moment: (0.000000, 0.000000, 0.000000) |e|*Ang

Total magnetic moment: (0.000000, 0.000000, 0.000000)
Local magnetic moments:
   0 Li ( 0.000000,  0.000000,  0.000000)
   1 Li ( 0.000000,  0.000000,  0.000000)
   2 O  ( 0.000000,  0.000000,  0.000000)
   3 O  ( 0.000000,  0.000000,  0.000000)
   4 O  ( 0.000000,  0.000000,  0.000000)
   5 O  ( 0.000000,  0.000000,  0.000000)

Energy contributions relative to reference atoms: (reference = -8510.849865)

Kinetic:        +17.263192
Potential:      -17.750509
External:        +0.000000
XC:             -30.031756
Entropy (-ST):   -0.190631
Local:           +0.160347
--------------------------
Free energy:    -30.549357
Extrapolated:   -30.454042

Spin contamination: 0.000000 electrons
Showing only first 2 kpts
                      Up                     Down
 Kpt  Band  Eigenvalues  Occupancy  Eigenvalues  Occupancy
  0    11      1.86001    0.13454      1.86001    0.13454
  0    12      2.05486    0.02167      2.05486    0.02167
  0    13      2.14629    0.00880      2.14629    0.00880
  0    14      7.89641    0.00000      7.89641    0.00000

  1    11      1.67889    0.48747      1.67889    0.48747
  1    12      2.05900    0.02081      2.05900    0.02081
  1    13      2.15007    0.00848      2.15007    0.00848
  1    14      7.72856    0.00000      7.72856    0.00000


Fermi level: 1.67387

No gap
Timing:                              incl.     excl.
-----------------------------------------------------------
Hamiltonian:                         0.414     0.015   0.0% |
 Atomic:                             0.271     0.014   0.0% |
  XC Correction:                     0.258     0.258   0.0% |
 Calculate atomic Hamiltonians:      0.030     0.030   0.0% |
 Communicate:                        0.000     0.000   0.0% |
 Initialize Hamiltonian:             0.000     0.000   0.0% |
 Poisson:                            0.001     0.001   0.0% |
 XC 3D grid:                         0.095     0.095   0.0% |
LCAO initialization:              2145.170     0.135   0.0% |
 LCAO eigensolver:                2105.651     0.019   0.0% |
  Calculate projections:             0.025     0.025   0.0% |
  DenseAtomicCorrection:             0.074     0.074   0.0% |
  Distribute overlap matrix:         0.010     0.010   0.0% |
  Orbital Layouts:                   0.188     0.188   0.0% |
  Potential matrix:               2105.093  2105.093  57.4% |----------------------|
  Sum over cells:                    0.242     0.242   0.0% |
 LCAO to grid:                      34.129    34.129   0.9% |
 Set positions (LCAO WFS):           5.256     0.793   0.0% |
  Basic WFS set positions:           0.002     0.002   0.0% |
  Basis functions set positions:     0.000     0.000   0.0% |
  P tci:                             1.957     1.957   0.1% |
  ST tci:                            2.393     2.393   0.1% |
  mktci:                             0.110     0.110   0.0% |
PWDescriptor:                        0.213     0.213   0.0% |
SCF-cycle:                        1521.378     2.089   0.1% |
 Davidson:                        1464.673    34.383   0.9% |
  Apply H:                         108.505   107.088   2.9% ||
   HMM T:                            1.418     1.418   0.0% |
  Subspace diag:                  1081.997     0.396   0.0% |
   calc_h_matrix:                 1077.989     3.526   0.1% |
    Apply H:                      1074.464  1073.028  29.2% |-----------|
     HMM T:                          1.435     1.435   0.0% |
   diagonalize:                      1.261     1.261   0.0% |
   rotate_psi:                       2.351     2.351   0.1% |
  calc. matrices:                  229.120    28.352   0.8% |
   Apply H:                        200.768   198.064   5.4% |-|
    HMM T:                           2.704     2.704   0.1% |
  diagonalize:                       6.162     6.162   0.2% |
  rotate_psi:                        4.506     4.506   0.1% |
 Density:                           50.711     0.000   0.0% |
  Atomic density matrices:           0.554     0.554   0.0% |
  Mix:                               0.615     0.615   0.0% |
  Multipole moments:                 0.005     0.005   0.0% |
  Pseudo density:                   49.537    49.464   1.3% ||
   Symmetrize density:               0.073     0.073   0.0% |
 Hamiltonian:                        3.315     0.031   0.0% |
  Atomic:                            2.348     0.124   0.0% |
   XC Correction:                    2.224     2.224   0.1% |
  Calculate atomic Hamiltonians:     0.230     0.230   0.0% |
  Communicate:                       0.000     0.000   0.0% |
  Poisson:                           0.008     0.008   0.0% |
  XC 3D grid:                        0.698     0.698   0.0% |
 Orthonormalize:                     0.590     0.014   0.0% |
  calc_s_matrix:                     0.306     0.306   0.0% |
  inverse-cholesky:                  0.016     0.016   0.0% |
  projections:                       0.208     0.208   0.0% |
  rotate_psi_s:                      0.045     0.045   0.0% |
Set symmetry:                        0.021     0.021   0.0% |
Other:                               3.110     3.110   0.1% |
-----------------------------------------------------------
Total:                                      3670.305 100.0%

Memory usage: 1.36 GiB
Date: Tue Jul 26 02:08:24 2022
