
  ___ ___ ___ _ _ _  
 |   |   |_  | | | | 
 | | | | | . | | | | 
 |__ |  _|___|_____|  22.1.0
 |___|_|             

User:   gabrielbirnbaum@Gabriels-MacBook-Pro.local
Date:   Tue Jul 26 00:31:35 2022
Arch:   x86_64
Pid:    92584
Python: 3.9.13
gpaw:   /Users/gabrielbirnbaum/PycharmProjects/nanolithia/venv/lib/python3.9/site-packages/gpaw
_gpaw:  /Users/gabrielbirnbaum/PycharmProjects/nanolithia/venv/lib/python3.9/site-packages/
        _gpaw.cpython-39-darwin.so
ase:    /Users/gabrielbirnbaum/PycharmProjects/nanolithia/venv/lib/python3.9/site-packages/ase (version 3.22.1)
numpy:  /Users/gabrielbirnbaum/PycharmProjects/nanolithia/venv/lib/python3.9/site-packages/numpy (version 1.23.0)
scipy:  /Users/gabrielbirnbaum/PycharmProjects/nanolithia/venv/lib/python3.9/site-packages/scipy (version 1.8.1)
libxc:  5.2.3
units:  Angstrom and eV
cores: 1
OpenMP: False
OMP_NUM_THREADS: 1

Input parameters:
  convergence: {density: 0.001,
                eigenstates: 0.0001,
                energy: 0.0002}
  kpts: {gamma: True,
         size: (4, 4, 4)}
  mode: {ecut: 500.0,
         name: pw}
  setups: {O: :p,0.33,0}
  spinpol: True

System changes: positions, numbers, cell, pbc, initial_charges, initial_magmoms 

Initialize ...

Li-setup:
  name: Lithium
  id: b73562207f97a71b6967473b66fe8b65
  Z: 3.0
  valence: 1
  core: 2
  charge: 0.0
  file: /Users/gabrielbirnbaum/dft_learning/DIR/gpaw-setups-0.9.20000/Li.LDA.gz
  compensation charges: gauss, rc=0.33, lmax=2
  cutoffs: 1.91(filt), 2.55(core),
  valence states:
                energy  radius
    2s(1.00)    -2.874   1.058
    2p(0.00)    -1.126   1.058
    *s          24.338   1.058

  Using partial waves for Li as LCAO basis

O-setup:
  name: Oxygen
  id: 9b9d51c344dea68c822856295a461509
  Z: 8.0
  valence: 6
  core: 2
  charge: 0.0
  Hubbard U: 0.330000 eV (l=1, scale=False)
  file: /Users/gabrielbirnbaum/dft_learning/DIR/gpaw-setups-0.9.20000/O.LDA.gz
  compensation charges: gauss, rc=0.21, lmax=2
  cutoffs: 1.17(filt), 0.83(core),
  valence states:
                energy  radius
    2s(2.00)   -23.752   0.688
    2p(4.00)    -9.195   0.598
    *s           3.459   0.688
    *p          18.016   0.598
    *d           0.000   0.619

  Using partial waves for O as LCAO basis

Reference energy: -8510.849865

Spin-polarized calculation.
Magnetic moment: 0.000000

Convergence criteria:
 Maximum [total energy] change in last 3 cyles: 0.0002 eV / electron
 Maximum integral of absolute [dens]ity change: 0.001 electrons / valence electron
 Maximum integral of absolute [eigenst]ate change: 0.0001 eV^2 / valence electron
 Maximum number of scf [iter]ations: 333
 (Square brackets indicate name in SCF output, whereas a 'c' in
 the SCF output indicates the quantity has converged.)

Symmetries present (total): 4

  ( 1  0  0)  ( 1  0  0)  (-1  0  0)  (-1  0  0)
  ( 0  1  0)  ( 0 -1  0)  ( 0  1  0)  ( 0 -1  0)
  ( 0  0  1)  ( 0  0 -1)  ( 0  0  1)  ( 0  0 -1)

64 k-points: 4 x 4 x 4 Monkhorst-Pack grid + [1/8,1/8,1/8]
30 k-points in the irreducible part of the Brillouin zone
       k-points in crystal coordinates                weights
   0:     0.00000000    0.00000000    0.00000000          1/64
   1:     0.00000000    0.00000000    0.25000000          2/64
   2:     0.00000000    0.00000000    0.50000000          1/64
   3:     0.00000000    0.25000000   -0.25000000          2/64
   4:     0.00000000    0.25000000    0.00000000          2/64
   5:     0.00000000    0.25000000    0.25000000          2/64
   6:     0.00000000    0.25000000    0.50000000          2/64
   7:     0.00000000    0.50000000    0.00000000          1/64
   8:     0.00000000    0.50000000    0.25000000          2/64
   9:     0.00000000    0.50000000    0.50000000          1/64
          ...
  29:     0.50000000    0.50000000    0.50000000          1/64

Wave functions: Plane wave expansion
  Cutoff energy: 500.000 eV
  Number of coefficients (min, max): 1440, 1491
  Pulay-stress correction: 0.000000 eV/Ang^3 (de/decut=0.000000)
  Using Numpy's FFT
  ScaLapack parameters: grid=1x1, blocksize=None
  Wavefunction extrapolation:
    Improved wavefunction reuse through dual PAW basis 

Occupation numbers: Fermi-Dirac: width=0.1000 eV
 

Eigensolver
   Davidson(niter=2) 

Densities:
  Coarse grid: 16*21*27 grid
  Fine grid: 32*42*54 grid
  Total Charge: 0.000000 

Density mixing:
  Method: difference
  Backend: pulay
  Linear mixing parameter: 0.05
  Mixing with 5 old densities
  Damping of long wave oscillations: 50 

Hamiltonian:
  XC and Coulomb potentials evaluated on a 32*42*54 grid
  Using the LDA Exchange-Correlation functional
  External potential:
    NoExternalPotential
 

Memory estimate:
  Process memory now: 1372.95 MiB
  Calculator: 42.99 MiB
    Density: 5.34 MiB
      Arrays: 2.42 MiB
      Localized functions: 1.95 MiB
      Mixer: 0.97 MiB
    Hamiltonian: 1.85 MiB
      Arrays: 1.80 MiB
      XC: 0.00 MiB
      Poisson: 0.00 MiB
      vbar: 0.05 MiB
    Wavefunctions: 35.80 MiB
      Arrays psit_nG: 27.30 MiB
      Eigensolver: 0.63 MiB
      Projections: 1.14 MiB
      Projectors: 5.70 MiB
      PW-descriptor: 1.03 MiB

Total number of cores used: 1

Number of atoms: 6
Number of atomic orbitals: 24
Number of bands in calculation: 20
Number of valence electrons: 26
Bands to converge: occupied

... initialized

Initializing position-dependent things.

Density initialized from atomic densities
Creating initial wave functions:
  20 bands from LCAO basis set

   .------.  
  /|      |  
 * | O    |  
 | O      |  
 | | Li   |  
 O |      |  
 | .--O---.  
 |/      /   
 Li-----*    

Positions:
   0 Li     1.480551    1.992835    2.448045    ( 0.0000,  0.0000,  0.0000)
   1 Li     0.000000    0.000000    0.000000    ( 0.0000,  0.0000,  0.0000)
   2 O      1.480551    2.518377    0.419218    ( 0.0000,  0.0000,  0.0000)
   3 O      1.480551    1.467292    4.476872    ( 0.0000,  0.0000,  0.0000)
   4 O      0.000000    0.525542    2.028827    ( 0.0000,  0.0000,  0.0000)
   5 O      0.000000    3.460127    2.867263    ( 0.0000,  0.0000,  0.0000)

Unit cell:
           periodic     x           y           z      points  spacing
  1. axis:    yes    2.961101    0.000000    0.000000    16     0.1851
  2. axis:    yes    0.000000    3.985669    0.000000    21     0.1898
  3. axis:    yes    0.000000    0.000000    4.896090    27     0.1813

  Lengths:   2.961101   3.985669   4.896090
  Angles:   90.000000  90.000000  90.000000

Effective grid spacing dv^(1/3) = 0.1854

     iter     time        total  log10-change:  magmom
                         energy  eigst   dens
iter:   1 00:32:09   -31.319420                  +0.0000
iter:   2 00:32:15   -31.219761  -1.72  -1.04    +0.0000
iter:   3 00:32:20   -30.540742  -1.60  -1.07    +0.0000
iter:   4 00:32:25   -30.529412  -2.20  -1.50    +0.0000
iter:   5 00:32:32   -30.493735  -2.91  -1.75    +0.0000
iter:   6 00:32:37   -30.493781  -3.93  -2.32    +0.0000
iter:   7 00:32:43   -30.496789c -3.34  -2.58    +0.0000
iter:   8 00:32:48   -30.493927c -4.32c -2.44    +0.0000
iter:   9 00:32:53   -30.493377c -3.85  -2.80    +0.0000
iter:  10 00:32:59   -30.493204c -4.82c -2.87    +0.0000
iter:  11 00:33:04   -30.493246c -5.58c -3.48c   +0.0000

Converged after 11 iterations.

Dipole moment: (0.000000, -0.000000, -0.000000) |e|*Ang

Total magnetic moment: (0.000000, 0.000000, 0.000000)
Local magnetic moments:
   0 Li ( 0.000000,  0.000000,  0.000000)
   1 Li ( 0.000000,  0.000000,  0.000000)
   2 O  ( 0.000000,  0.000000,  0.000000)
   3 O  ( 0.000000,  0.000000,  0.000000)
   4 O  ( 0.000000,  0.000000,  0.000000)
   5 O  ( 0.000000,  0.000000,  0.000000)

Energy contributions relative to reference atoms: (reference = -8510.849865)

Kinetic:        +17.035386
Potential:      -17.616801
External:        +0.000000
XC:             -29.979937
Entropy (-ST):   -0.156153
Local:           +0.146182
--------------------------
Free energy:    -30.571323
Extrapolated:   -30.493246

Spin contamination: 0.000000 electrons
Showing only first 2 kpts
                      Up                     Down
 Kpt  Band  Eigenvalues  Occupancy  Eigenvalues  Occupancy
  0    11      1.82928    0.11043      1.82928    0.11043
  0    12      2.07011    0.01104      2.07011    0.01104
  0    13      2.16161    0.00445      2.16161    0.00445
  0    14      7.88737    0.00000      7.88737    0.00000

  1    11      1.45282    0.84267      1.45282    0.84267
  1    12      2.08416    0.00961      2.08416    0.00961
  1    13      2.15998    0.00453      2.15998    0.00453
  1    14      7.55468    0.00000      7.55468    0.00000


Fermi level: 1.62064

No gap
Timing:                              incl.     excl.
-----------------------------------------------------------
Hamiltonian:                         0.090     0.001   0.0% |
 Atomic:                             0.059     0.003   0.0% |
  XC Correction:                     0.056     0.056   0.1% |
 Calculate atomic Hamiltonians:      0.006     0.006   0.0% |
 Communicate:                        0.000     0.000   0.0% |
 Initialize Hamiltonian:             0.000     0.000   0.0% |
 Poisson:                            0.000     0.000   0.0% |
 XC 3D grid:                         0.024     0.024   0.0% |
LCAO initialization:                27.959     0.067   0.1% |
 LCAO eigensolver:                  24.054     0.003   0.0% |
  Calculate projections:             0.003     0.003   0.0% |
  DenseAtomicCorrection:             0.010     0.010   0.0% |
  Distribute overlap matrix:         0.001     0.001   0.0% |
  Orbital Layouts:                   0.022     0.022   0.0% |
  Potential matrix:                 23.977    23.977  26.8% |----------|
  Sum over cells:                    0.036     0.036   0.0% |
 LCAO to grid:                       3.279     3.279   3.7% ||
 Set positions (LCAO WFS):           0.560     0.085   0.1% |
  Basic WFS set positions:           0.001     0.001   0.0% |
  Basis functions set positions:     0.000     0.000   0.0% |
  P tci:                             0.212     0.212   0.2% |
  ST tci:                            0.238     0.238   0.3% |
  mktci:                             0.024     0.024   0.0% |
PWDescriptor:                        0.048     0.048   0.1% |
SCF-cycle:                          60.802     0.210   0.2% |
 Davidson:                          52.374     3.325   3.7% ||
  Apply H:                          13.754    13.618  15.2% |-----|
   HMM T:                            0.136     0.136   0.2% |
  Subspace diag:                    11.811     0.035   0.0% |
   calc_h_matrix:                   11.425     0.229   0.3% |
    Apply H:                        11.196    11.056  12.4% |----|
     HMM T:                          0.140     0.140   0.2% |
   diagonalize:                      0.124     0.124   0.1% |
   rotate_psi:                       0.227     0.227   0.3% |
  calc. matrices:                   22.535     2.300   2.6% ||
   Apply H:                         20.235    19.973  22.3% |--------|
    HMM T:                           0.262     0.262   0.3% |
  diagonalize:                       0.535     0.535   0.6% |
  rotate_psi:                        0.414     0.414   0.5% |
 Density:                            7.161     0.000   0.0% |
  Atomic density matrices:           0.057     0.057   0.1% |
  Mix:                               0.198     0.198   0.2% |
  Multipole moments:                 0.001     0.001   0.0% |
  Pseudo density:                    6.904     6.886   7.7% |--|
   Symmetrize density:               0.018     0.018   0.0% |
 Hamiltonian:                        0.885     0.021   0.0% |
  Atomic:                            0.591     0.031   0.0% |
   XC Correction:                    0.560     0.560   0.6% |
  Calculate atomic Hamiltonians:     0.060     0.060   0.1% |
  Communicate:                       0.000     0.000   0.0% |
  Poisson:                           0.002     0.002   0.0% |
  XC 3D grid:                        0.212     0.212   0.2% |
 Orthonormalize:                     0.172     0.003   0.0% |
  calc_s_matrix:                     0.104     0.104   0.1% |
  inverse-cholesky:                  0.004     0.004   0.0% |
  projections:                       0.050     0.050   0.1% |
  rotate_psi_s:                      0.010     0.010   0.0% |
Set symmetry:                        0.002     0.002   0.0% |
Other:                               0.564     0.564   0.6% |
-----------------------------------------------------------
Total:                                        89.465 100.0%

Memory usage: 1.34 GiB
Date: Tue Jul 26 00:33:04 2022
