
  ___ ___ ___ _ _ _  
 |   |   |_  | | | | 
 | | | | | . | | | | 
 |__ |  _|___|_____|  22.1.0
 |___|_|             

User:   gabrielbirnbaum@Gabriels-MacBook-Pro.local
Date:   Mon Jul 25 13:10:39 2022
Arch:   x86_64
Pid:    92584
Python: 3.9.13
gpaw:   /Users/gabrielbirnbaum/PycharmProjects/nanolithia/venv/lib/python3.9/site-packages/gpaw
_gpaw:  /Users/gabrielbirnbaum/PycharmProjects/nanolithia/venv/lib/python3.9/site-packages/
        _gpaw.cpython-39-darwin.so
ase:    /Users/gabrielbirnbaum/PycharmProjects/nanolithia/venv/lib/python3.9/site-packages/ase (version 3.22.1)
numpy:  /Users/gabrielbirnbaum/PycharmProjects/nanolithia/venv/lib/python3.9/site-packages/numpy (version 1.23.0)
scipy:  /Users/gabrielbirnbaum/PycharmProjects/nanolithia/venv/lib/python3.9/site-packages/scipy (version 1.8.1)
libxc:  5.2.3
units:  Angstrom and eV
cores: 1
OpenMP: False
OMP_NUM_THREADS: 1

Input parameters:
  convergence: {density: 0.001,
                eigenstates: 0.0001,
                energy: 0.0002}
  kpts: {gamma: True,
         size: (8, 8, 8)}
  mode: {ecut: 500.0,
         name: pw}
  setups: {O: :p,0.33,0}
  spinpol: True

System changes: positions, numbers, cell, pbc, initial_charges, initial_magmoms 

Initialize ...

Li-setup:
  name: Lithium
  id: b73562207f97a71b6967473b66fe8b65
  Z: 3.0
  valence: 1
  core: 2
  charge: 0.0
  file: /Users/gabrielbirnbaum/dft_learning/DIR/gpaw-setups-0.9.20000/Li.LDA.gz
  compensation charges: gauss, rc=0.33, lmax=2
  cutoffs: 1.91(filt), 2.55(core),
  valence states:
                energy  radius
    2s(1.00)    -2.874   1.058
    2p(0.00)    -1.126   1.058
    *s          24.338   1.058

  Using partial waves for Li as LCAO basis

O-setup:
  name: Oxygen
  id: 9b9d51c344dea68c822856295a461509
  Z: 8.0
  valence: 6
  core: 2
  charge: 0.0
  Hubbard U: 0.330000 eV (l=1, scale=False)
  file: /Users/gabrielbirnbaum/dft_learning/DIR/gpaw-setups-0.9.20000/O.LDA.gz
  compensation charges: gauss, rc=0.21, lmax=2
  cutoffs: 1.17(filt), 0.83(core),
  valence states:
                energy  radius
    2s(2.00)   -23.752   0.688
    2p(4.00)    -9.195   0.598
    *s           3.459   0.688
    *p          18.016   0.598
    *d           0.000   0.619

  Using partial waves for O as LCAO basis

Reference energy: -8510.849865

Spin-polarized calculation.
Magnetic moment: 0.000000

Convergence criteria:
 Maximum [total energy] change in last 3 cyles: 0.0002 eV / electron
 Maximum integral of absolute [dens]ity change: 0.001 electrons / valence electron
 Maximum integral of absolute [eigenst]ate change: 0.0001 eV^2 / valence electron
 Maximum number of scf [iter]ations: 333
 (Square brackets indicate name in SCF output, whereas a 'c' in
 the SCF output indicates the quantity has converged.)

Symmetries present (total): 4

  ( 1  0  0)  ( 1  0  0)  (-1  0  0)  (-1  0  0)
  ( 0  1  0)  ( 0 -1  0)  ( 0  1  0)  ( 0 -1  0)
  ( 0  0  1)  ( 0  0 -1)  ( 0  0  1)  ( 0  0 -1)

512 k-points: 8 x 8 x 8 Monkhorst-Pack grid + [1/16,1/16,1/16]
170 k-points in the irreducible part of the Brillouin zone
       k-points in crystal coordinates                weights
   0:     0.00000000    0.00000000    0.00000000          1/512
   1:     0.00000000    0.00000000    0.12500000          2/512
   2:     0.00000000    0.00000000    0.25000000          2/512
   3:     0.00000000    0.00000000    0.37500000          2/512
   4:     0.00000000    0.00000000    0.50000000          1/512
   5:     0.00000000    0.12500000   -0.37500000          2/512
   6:     0.00000000    0.12500000   -0.25000000          2/512
   7:     0.00000000    0.12500000   -0.12500000          2/512
   8:     0.00000000    0.12500000    0.00000000          2/512
   9:     0.00000000    0.12500000    0.12500000          2/512
          ...
 169:     0.50000000    0.50000000    0.50000000          1/512

Wave functions: Plane wave expansion
  Cutoff energy: 500.000 eV
  Number of coefficients (min, max): 1438, 1492
  Pulay-stress correction: 0.000000 eV/Ang^3 (de/decut=0.000000)
  Using Numpy's FFT
  ScaLapack parameters: grid=1x1, blocksize=None
  Wavefunction extrapolation:
    Improved wavefunction reuse through dual PAW basis 

Occupation numbers: Fermi-Dirac: width=0.1000 eV
 

Eigensolver
   Davidson(niter=2) 

Densities:
  Coarse grid: 16*21*27 grid
  Fine grid: 32*42*54 grid
  Total Charge: 0.000000 

Density mixing:
  Method: difference
  Backend: pulay
  Linear mixing parameter: 0.05
  Mixing with 5 old densities
  Damping of long wave oscillations: 50 

Hamiltonian:
  XC and Coulomb potentials evaluated on a 32*42*54 grid
  Using the LDA Exchange-Correlation functional
  External potential:
    NoExternalPotential
 

Memory estimate:
  Process memory now: 546.72 MiB
  Calculator: 205.62 MiB
    Density: 5.34 MiB
      Arrays: 2.42 MiB
      Localized functions: 1.95 MiB
      Mixer: 0.97 MiB
    Hamiltonian: 1.85 MiB
      Arrays: 1.80 MiB
      XC: 0.00 MiB
      Poisson: 0.00 MiB
      vbar: 0.05 MiB
    Wavefunctions: 198.43 MiB
      Arrays psit_nG: 154.81 MiB
      Eigensolver: 0.63 MiB
      Projections: 6.43 MiB
      Projectors: 32.34 MiB
      PW-descriptor: 4.22 MiB

Total number of cores used: 1

Number of atoms: 6
Number of atomic orbitals: 24
Number of bands in calculation: 20
Number of valence electrons: 26
Bands to converge: occupied

... initialized

Initializing position-dependent things.

Density initialized from atomic densities
Creating initial wave functions:
  20 bands from LCAO basis set

   .------.  
  /|      |  
 * | O    |  
 | O      |  
 | | Li   |  
 O |      |  
 | .--O---.  
 |/      /   
 Li-----*    

Positions:
   0 Li     1.480551    1.992835    2.448045    ( 0.0000,  0.0000,  0.0000)
   1 Li     0.000000    0.000000    0.000000    ( 0.0000,  0.0000,  0.0000)
   2 O      1.480551    2.518377    0.419218    ( 0.0000,  0.0000,  0.0000)
   3 O      1.480551    1.467292    4.476872    ( 0.0000,  0.0000,  0.0000)
   4 O      0.000000    0.525542    2.028827    ( 0.0000,  0.0000,  0.0000)
   5 O      0.000000    3.460127    2.867263    ( 0.0000,  0.0000,  0.0000)

Unit cell:
           periodic     x           y           z      points  spacing
  1. axis:    yes    2.961101    0.000000    0.000000    16     0.1851
  2. axis:    yes    0.000000    3.985669    0.000000    21     0.1898
  3. axis:    yes    0.000000    0.000000    4.896090    27     0.1813

  Lengths:   2.961101   3.985669   4.896090
  Angles:   90.000000  90.000000  90.000000

Effective grid spacing dv^(1/3) = 0.1854

     iter     time        total  log10-change:  magmom
                         energy  eigst   dens
iter:   1 13:13:59   -31.345823                  +0.0000
iter:   2 13:14:29   -31.239751  -1.73  -1.03    +0.0000
iter:   3 13:15:00   -30.521638  -1.58  -1.07    +0.0000
iter:   4 13:15:31   -30.503148  -2.26  -1.50    +0.0000
iter:   5 13:16:01   -30.491964  -2.50  -1.72    +0.0000
iter:   6 13:16:30   -30.479113  -3.71  -2.01    +0.0000
iter:   7 13:17:01   -30.477645  -4.63c -2.35    +0.0000
iter:   8 13:17:33   -30.476515c -3.73  -2.48    +0.0000
iter:   9 13:18:06   -30.476243c -5.27c -2.83    +0.0000
iter:  10 13:18:39   -30.476203c -4.28c -3.00    +0.0000
iter:  11 13:19:12   -30.476053c -5.06c -3.02c   +0.0000

Converged after 11 iterations.

Dipole moment: (0.000000, -0.000000, -0.000000) |e|*Ang

Total magnetic moment: (0.000000, 0.000000, 0.000000)
Local magnetic moments:
   0 Li ( 0.000000,  0.000000,  0.000000)
   1 Li ( 0.000000,  0.000000,  0.000000)
   2 O  ( 0.000000,  0.000000,  0.000000)
   3 O  ( 0.000000,  0.000000,  0.000000)
   4 O  ( 0.000000,  0.000000,  0.000000)
   5 O  ( 0.000000,  0.000000,  0.000000)

Energy contributions relative to reference atoms: (reference = -8510.849865)

Kinetic:        +17.154382
Potential:      -17.683222
External:        +0.000000
XC:             -30.015047
Entropy (-ST):   -0.172363
Local:           +0.154016
--------------------------
Free energy:    -30.562235
Extrapolated:   -30.476053

Spin contamination: 0.000000 electrons
Showing only first 2 kpts
                      Up                     Down
 Kpt  Band  Eigenvalues  Occupancy  Eigenvalues  Occupancy
  0    11      1.85905    0.13741      1.85905    0.13741
  0    12      2.04899    0.02329      2.04899    0.02329
  0    13      2.14037    0.00947      2.14037    0.00947
  0    14      7.89384    0.00000      7.89384    0.00000

  1    11      1.75553    0.30964      1.75553    0.30964
  1    12      2.05408    0.02216      2.05408    0.02216
  1    13      2.14116    0.00940      2.14116    0.00940
  1    14      7.79351    0.00000      7.79351    0.00000


Fermi level: 1.67535

No gap
Timing:                              incl.     excl.
-----------------------------------------------------------
Hamiltonian:                         0.085     0.001   0.0% |
 Atomic:                             0.061     0.003   0.0% |
  XC Correction:                     0.058     0.058   0.0% |
 Calculate atomic Hamiltonians:      0.006     0.006   0.0% |
 Communicate:                        0.000     0.000   0.0% |
 Initialize Hamiltonian:             0.000     0.000   0.0% |
 Poisson:                            0.000     0.000   0.0% |
 XC 3D grid:                         0.017     0.017   0.0% |
LCAO initialization:               167.563     0.052   0.0% |
 LCAO eigensolver:                 147.219     0.016   0.0% |
  Calculate projections:             0.019     0.019   0.0% |
  DenseAtomicCorrection:             0.056     0.056   0.0% |
  Distribute overlap matrix:         0.008     0.008   0.0% |
  Orbital Layouts:                   0.170     0.170   0.0% |
  Potential matrix:                146.739   146.739  28.6% |----------|
  Sum over cells:                    0.213     0.213   0.0% |
 LCAO to grid:                      17.957    17.957   3.5% ||
 Set positions (LCAO WFS):           2.335     0.358   0.1% |
  Basic WFS set positions:           0.001     0.001   0.0% |
  Basis functions set positions:     0.000     0.000   0.0% |
  P tci:                             0.898     0.898   0.2% |
  ST tci:                            1.053     1.053   0.2% |
  mktci:                             0.025     0.025   0.0% |
PWDescriptor:                        0.198     0.198   0.0% |
SCF-cycle:                         343.911     1.225   0.2% |
 Davidson:                         313.672    23.245   4.5% |-|
  Apply H:                          66.986    66.005  12.9% |----|
   HMM T:                            0.980     0.980   0.2% |
  Subspace diag:                    70.950     0.262   0.1% |
   calc_h_matrix:                   67.933     1.996   0.4% |
    Apply H:                        65.937    64.950  12.7% |----|
     HMM T:                          0.987     0.987   0.2% |
   diagonalize:                      1.151     1.151   0.2% |
   rotate_psi:                       1.604     1.604   0.3% |
  calc. matrices:                  144.764    12.926   2.5% ||
   Apply H:                        131.838   129.923  25.3% |---------|
    HMM T:                           1.916     1.916   0.4% |
  diagonalize:                       4.864     4.864   0.9% |
  rotate_psi:                        2.864     2.864   0.6% |
 Density:                           27.496     0.000   0.0% |
  Atomic density matrices:           0.306     0.306   0.1% |
  Mix:                               0.139     0.139   0.0% |
  Multipole moments:                 0.002     0.002   0.0% |
  Pseudo density:                   27.050    27.032   5.3% |-|
   Symmetrize density:               0.018     0.018   0.0% |
 Hamiltonian:                        0.839     0.009   0.0% |
  Atomic:                            0.607     0.036   0.0% |
   XC Correction:                    0.571     0.571   0.1% |
  Calculate atomic Hamiltonians:     0.062     0.062   0.0% |
  Communicate:                       0.000     0.000   0.0% |
  Poisson:                           0.002     0.002   0.0% |
  XC 3D grid:                        0.159     0.159   0.0% |
 Orthonormalize:                     0.679     0.026   0.0% |
  calc_s_matrix:                     0.184     0.184   0.0% |
  inverse-cholesky:                  0.030     0.030   0.0% |
  projections:                       0.362     0.362   0.1% |
  rotate_psi_s:                      0.077     0.077   0.0% |
Set symmetry:                        0.011     0.011   0.0% |
Other:                               1.209     1.209   0.2% |
-----------------------------------------------------------
Total:                                       512.976 100.0%

Memory usage: 600.90 MiB
Date: Mon Jul 25 13:19:12 2022
