
  ___ ___ ___ _ _ _  
 |   |   |_  | | | | 
 | | | | | . | | | | 
 |__ |  _|___|_____|  22.1.0
 |___|_|             

User:   gabrielbirnbaum@Gabriels-MacBook-Pro.local
Date:   Tue Jul 26 00:33:04 2022
Arch:   x86_64
Pid:    92584
Python: 3.9.13
gpaw:   /Users/gabrielbirnbaum/PycharmProjects/nanolithia/venv/lib/python3.9/site-packages/gpaw
_gpaw:  /Users/gabrielbirnbaum/PycharmProjects/nanolithia/venv/lib/python3.9/site-packages/
        _gpaw.cpython-39-darwin.so
ase:    /Users/gabrielbirnbaum/PycharmProjects/nanolithia/venv/lib/python3.9/site-packages/ase (version 3.22.1)
numpy:  /Users/gabrielbirnbaum/PycharmProjects/nanolithia/venv/lib/python3.9/site-packages/numpy (version 1.23.0)
scipy:  /Users/gabrielbirnbaum/PycharmProjects/nanolithia/venv/lib/python3.9/site-packages/scipy (version 1.8.1)
libxc:  5.2.3
units:  Angstrom and eV
cores: 1
OpenMP: False
OMP_NUM_THREADS: 1

Input parameters:
  convergence: {density: 0.001,
                eigenstates: 0.0001,
                energy: 0.0002}
  kpts: {gamma: True,
         size: (5, 5, 5)}
  mode: {ecut: 500.0,
         name: pw}
  setups: {O: :p,0.33,0}
  spinpol: True

System changes: positions, numbers, cell, pbc, initial_charges, initial_magmoms 

Initialize ...

Li-setup:
  name: Lithium
  id: b73562207f97a71b6967473b66fe8b65
  Z: 3.0
  valence: 1
  core: 2
  charge: 0.0
  file: /Users/gabrielbirnbaum/dft_learning/DIR/gpaw-setups-0.9.20000/Li.LDA.gz
  compensation charges: gauss, rc=0.33, lmax=2
  cutoffs: 1.91(filt), 2.55(core),
  valence states:
                energy  radius
    2s(1.00)    -2.874   1.058
    2p(0.00)    -1.126   1.058
    *s          24.338   1.058

  Using partial waves for Li as LCAO basis

O-setup:
  name: Oxygen
  id: 9b9d51c344dea68c822856295a461509
  Z: 8.0
  valence: 6
  core: 2
  charge: 0.0
  Hubbard U: 0.330000 eV (l=1, scale=False)
  file: /Users/gabrielbirnbaum/dft_learning/DIR/gpaw-setups-0.9.20000/O.LDA.gz
  compensation charges: gauss, rc=0.21, lmax=2
  cutoffs: 1.17(filt), 0.83(core),
  valence states:
                energy  radius
    2s(2.00)   -23.752   0.688
    2p(4.00)    -9.195   0.598
    *s           3.459   0.688
    *p          18.016   0.598
    *d           0.000   0.619

  Using partial waves for O as LCAO basis

Reference energy: -8510.849865

Spin-polarized calculation.
Magnetic moment: 0.000000

Convergence criteria:
 Maximum [total energy] change in last 3 cyles: 0.0002 eV / electron
 Maximum integral of absolute [dens]ity change: 0.001 electrons / valence electron
 Maximum integral of absolute [eigenst]ate change: 0.0001 eV^2 / valence electron
 Maximum number of scf [iter]ations: 333
 (Square brackets indicate name in SCF output, whereas a 'c' in
 the SCF output indicates the quantity has converged.)

Symmetries present (total): 4

  ( 1  0  0)  ( 1  0  0)  (-1  0  0)  (-1  0  0)
  ( 0  1  0)  ( 0 -1  0)  ( 0  1  0)  ( 0 -1  0)
  ( 0  0  1)  ( 0  0 -1)  ( 0  0  1)  ( 0  0 -1)

125 k-points: 5 x 5 x 5 Monkhorst-Pack grid
39 k-points in the irreducible part of the Brillouin zone
       k-points in crystal coordinates                weights
   0:     0.00000000    0.00000000    0.00000000          1/125
   1:     0.00000000    0.00000000    0.20000000          2/125
   2:     0.00000000    0.00000000    0.40000000          2/125
   3:     0.00000000    0.20000000   -0.40000000          2/125
   4:     0.00000000    0.20000000   -0.20000000          2/125
   5:     0.00000000    0.20000000    0.00000000          2/125
   6:     0.00000000    0.20000000    0.20000000          2/125
   7:     0.00000000    0.20000000    0.40000000          2/125
   8:     0.00000000    0.40000000   -0.40000000          2/125
   9:     0.00000000    0.40000000   -0.20000000          2/125
          ...
  38:     0.40000000    0.40000000    0.40000000          4/125

Wave functions: Plane wave expansion
  Cutoff energy: 500.000 eV
  Number of coefficients (min, max): 1450, 1487
  Pulay-stress correction: 0.000000 eV/Ang^3 (de/decut=0.000000)
  Using Numpy's FFT
  ScaLapack parameters: grid=1x1, blocksize=None
  Wavefunction extrapolation:
    Improved wavefunction reuse through dual PAW basis 

Occupation numbers: Fermi-Dirac: width=0.1000 eV
 

Eigensolver
   Davidson(niter=2) 

Densities:
  Coarse grid: 16*21*27 grid
  Fine grid: 32*42*54 grid
  Total Charge: 0.000000 

Density mixing:
  Method: difference
  Backend: pulay
  Linear mixing parameter: 0.05
  Mixing with 5 old densities
  Damping of long wave oscillations: 50 

Hamiltonian:
  XC and Coulomb potentials evaluated on a 32*42*54 grid
  Using the LDA Exchange-Correlation functional
  External potential:
    NoExternalPotential
 

Memory estimate:
  Process memory now: 1374.33 MiB
  Calculator: 53.35 MiB
    Density: 5.34 MiB
      Arrays: 2.42 MiB
      Localized functions: 1.95 MiB
      Mixer: 0.97 MiB
    Hamiltonian: 1.85 MiB
      Arrays: 1.80 MiB
      XC: 0.00 MiB
      Poisson: 0.00 MiB
      vbar: 0.05 MiB
    Wavefunctions: 46.16 MiB
      Arrays psit_nG: 35.40 MiB
      Eigensolver: 0.63 MiB
      Projections: 1.48 MiB
      Projectors: 7.43 MiB
      PW-descriptor: 1.23 MiB

Total number of cores used: 1

Number of atoms: 6
Number of atomic orbitals: 24
Number of bands in calculation: 20
Number of valence electrons: 26
Bands to converge: occupied

... initialized

Initializing position-dependent things.

Density initialized from atomic densities
Creating initial wave functions:
  20 bands from LCAO basis set

   .------.  
  /|      |  
 * | O    |  
 | O      |  
 | | Li   |  
 O |      |  
 | .--O---.  
 |/      /   
 Li-----*    

Positions:
   0 Li     1.480551    1.992835    2.448045    ( 0.0000,  0.0000,  0.0000)
   1 Li     0.000000    0.000000    0.000000    ( 0.0000,  0.0000,  0.0000)
   2 O      1.480551    2.518377    0.419218    ( 0.0000,  0.0000,  0.0000)
   3 O      1.480551    1.467292    4.476872    ( 0.0000,  0.0000,  0.0000)
   4 O      0.000000    0.525542    2.028827    ( 0.0000,  0.0000,  0.0000)
   5 O      0.000000    3.460127    2.867263    ( 0.0000,  0.0000,  0.0000)

Unit cell:
           periodic     x           y           z      points  spacing
  1. axis:    yes    2.961101    0.000000    0.000000    16     0.1851
  2. axis:    yes    0.000000    3.985669    0.000000    21     0.1898
  3. axis:    yes    0.000000    0.000000    4.896090    27     0.1813

  Lengths:   2.961101   3.985669   4.896090
  Angles:   90.000000  90.000000  90.000000

Effective grid spacing dv^(1/3) = 0.1854

     iter     time        total  log10-change:  magmom
                         energy  eigst   dens
iter:   1 00:33:48   -31.308111                  +0.0000
iter:   2 00:33:59   -31.202490  -1.72  -1.03    +0.0000
iter:   3 01:04:13   -30.503621  -1.60  -1.07    +0.0000
iter:   4 01:04:31   -30.485836  -2.28  -1.49    +0.0000
iter:   5 01:05:02   -30.454779  -2.91  -1.69    +0.0000
iter:   6 01:05:34   -30.455537  -4.29c -2.29    +0.0000
iter:   7 01:06:08   -30.455448c -4.82c -2.44    +0.0000
iter:   8 01:06:42   -30.454048c -4.02c -2.56    +0.0000
iter:   9 01:07:13   -30.454015c -5.98c -3.10c   +0.0000

Converged after 9 iterations.

Dipole moment: (0.000000, 0.000000, 0.000000) |e|*Ang

Total magnetic moment: (0.000000, 0.000000, 0.000000)
Local magnetic moments:
   0 Li ( 0.000000,  0.000000,  0.000000)
   1 Li ( 0.000000,  0.000000,  0.000000)
   2 O  ( 0.000000,  0.000000,  0.000000)
   3 O  ( 0.000000,  0.000000,  0.000000)
   4 O  ( 0.000000,  0.000000,  0.000000)
   5 O  ( 0.000000,  0.000000,  0.000000)

Energy contributions relative to reference atoms: (reference = -8510.849865)

Kinetic:        +17.662960
Potential:      -18.158771
External:        +0.000000
XC:             -30.063179
Entropy (-ST):   -0.189493
Local:           +0.199720
--------------------------
Free energy:    -30.548762
Extrapolated:   -30.454015

Spin contamination: 0.000000 electrons
Showing only first 2 kpts
                      Up                     Down
 Kpt  Band  Eigenvalues  Occupancy  Eigenvalues  Occupancy
  0    11      1.85498    0.12052      1.85498    0.12052
  0    12      2.07396    0.01511      2.07396    0.01511
  0    13      2.16555    0.00610      2.16555    0.00610
  0    14      7.90008    0.00000      7.90008    0.00000

  1    11      1.60447    0.62660      1.60447    0.62660
  1    12      2.08185    0.01398      2.08185    0.01398
  1    13      2.16735    0.00599      2.16735    0.00599
  1    14      7.66911    0.00000      7.66911    0.00000


Fermi level: 1.65623

No gap
Timing:                              incl.     excl.
-----------------------------------------------------------
Hamiltonian:                         0.085     0.001   0.0% |
 Atomic:                             0.060     0.003   0.0% |
  XC Correction:                     0.056     0.056   0.0% |
 Calculate atomic Hamiltonians:      0.006     0.006   0.0% |
 Communicate:                        0.000     0.000   0.0% |
 Initialize Hamiltonian:             0.000     0.000   0.0% |
 Poisson:                            0.000     0.000   0.0% |
 XC 3D grid:                         0.019     0.019   0.0% |
LCAO initialization:                35.826     0.093   0.0% |
 LCAO eigensolver:                  31.123     0.004   0.0% |
  Calculate projections:             0.004     0.004   0.0% |
  DenseAtomicCorrection:             0.013     0.013   0.0% |
  Distribute overlap matrix:         0.002     0.002   0.0% |
  Orbital Layouts:                   0.028     0.028   0.0% |
  Potential matrix:                 31.018    31.018   1.5% ||
  Sum over cells:                    0.054     0.054   0.0% |
 LCAO to grid:                       3.972     3.972   0.2% |
 Set positions (LCAO WFS):           0.639     0.099   0.0% |
  Basic WFS set positions:           0.001     0.001   0.0% |
  Basis functions set positions:     0.000     0.000   0.0% |
  P tci:                             0.223     0.223   0.0% |
  ST tci:                            0.291     0.291   0.0% |
  mktci:                             0.025     0.025   0.0% |
PWDescriptor:                        0.049     0.049   0.0% |
SCF-cycle:                        2012.194     0.549   0.0% |
 Davidson:                        1990.623    11.504   0.6% |
  Apply H:                          44.776    44.298   2.2% ||
   HMM T:                            0.478     0.478   0.0% |
  Subspace diag:                  1844.796     0.132   0.0% |
   calc_h_matrix:                 1843.460     1.230   0.1% |
    Apply H:                      1842.230  1841.754  89.9% |-----------------------------------|
     HMM T:                          0.476     0.476   0.0% |
   diagonalize:                      0.406     0.406   0.0% |
   rotate_psi:                       0.798     0.798   0.0% |
  calc. matrices:                   85.940    11.332   0.6% |
   Apply H:                         74.607    73.705   3.6% ||
    HMM T:                           0.902     0.902   0.0% |
  diagonalize:                       2.076     2.076   0.1% |
  rotate_psi:                        1.532     1.532   0.1% |
 Density:                           18.682     0.000   0.0% |
  Atomic density matrices:           0.174     0.174   0.0% |
  Mix:                               0.419     0.419   0.0% |
  Multipole moments:                 0.003     0.003   0.0% |
  Pseudo density:                   18.085    18.040   0.9% |
   Symmetrize density:               0.045     0.045   0.0% |
 Hamiltonian:                        2.112     0.040   0.0% |
  Atomic:                            1.469     0.079   0.0% |
   XC Correction:                    1.391     1.391   0.1% |
  Calculate atomic Hamiltonians:     0.146     0.146   0.0% |
  Communicate:                       0.000     0.000   0.0% |
  Poisson:                           0.005     0.005   0.0% |
  XC 3D grid:                        0.451     0.451   0.0% |
 Orthonormalize:                     0.228     0.005   0.0% |
  calc_s_matrix:                     0.136     0.136   0.0% |
  inverse-cholesky:                  0.005     0.005   0.0% |
  projections:                       0.067     0.067   0.0% |
  rotate_psi_s:                      0.015     0.015   0.0% |
Set symmetry:                        0.003     0.003   0.0% |
Other:                               1.215     1.215   0.1% |
-----------------------------------------------------------
Total:                                      2049.372 100.0%

Memory usage: 1.35 GiB
Date: Tue Jul 26 01:07:14 2022
