
  ___ ___ ___ _ _ _  
 |   |   |_  | | | | 
 | | | | | . | | | | 
 |__ |  _|___|_____|  22.1.0
 |___|_|             

User:   gabrielbirnbaum@Gabriels-MacBook-Pro.local
Date:   Mon Jul 25 23:33:43 2022
Arch:   x86_64
Pid:    92584
Python: 3.9.13
gpaw:   /Users/gabrielbirnbaum/PycharmProjects/nanolithia/venv/lib/python3.9/site-packages/gpaw
_gpaw:  /Users/gabrielbirnbaum/PycharmProjects/nanolithia/venv/lib/python3.9/site-packages/
        _gpaw.cpython-39-darwin.so
ase:    /Users/gabrielbirnbaum/PycharmProjects/nanolithia/venv/lib/python3.9/site-packages/ase (version 3.22.1)
numpy:  /Users/gabrielbirnbaum/PycharmProjects/nanolithia/venv/lib/python3.9/site-packages/numpy (version 1.23.0)
scipy:  /Users/gabrielbirnbaum/PycharmProjects/nanolithia/venv/lib/python3.9/site-packages/scipy (version 1.8.1)
libxc:  5.2.3
units:  Angstrom and eV
cores: 1
OpenMP: False
OMP_NUM_THREADS: 1

Input parameters:
  convergence: {density: 0.001,
                eigenstates: 0.0001,
                energy: 0.0002}
  kpts: {gamma: True,
         size: (8, 8, 8)}
  mode: {ecut: 750.0,
         name: pw}
  setups: {O: :p,0.33,0}
  spinpol: True

System changes: positions, numbers, cell, pbc, initial_charges, initial_magmoms 

Initialize ...

Li-setup:
  name: Lithium
  id: b73562207f97a71b6967473b66fe8b65
  Z: 3.0
  valence: 1
  core: 2
  charge: 0.0
  file: /Users/gabrielbirnbaum/dft_learning/DIR/gpaw-setups-0.9.20000/Li.LDA.gz
  compensation charges: gauss, rc=0.33, lmax=2
  cutoffs: 1.91(filt), 2.55(core),
  valence states:
                energy  radius
    2s(1.00)    -2.874   1.058
    2p(0.00)    -1.126   1.058
    *s          24.338   1.058

  Using partial waves for Li as LCAO basis

O-setup:
  name: Oxygen
  id: 9b9d51c344dea68c822856295a461509
  Z: 8.0
  valence: 6
  core: 2
  charge: 0.0
  Hubbard U: 0.330000 eV (l=1, scale=False)
  file: /Users/gabrielbirnbaum/dft_learning/DIR/gpaw-setups-0.9.20000/O.LDA.gz
  compensation charges: gauss, rc=0.21, lmax=2
  cutoffs: 1.17(filt), 0.83(core),
  valence states:
                energy  radius
    2s(2.00)   -23.752   0.688
    2p(4.00)    -9.195   0.598
    *s           3.459   0.688
    *p          18.016   0.598
    *d           0.000   0.619

  Using partial waves for O as LCAO basis

Reference energy: -8510.849865

Spin-polarized calculation.
Magnetic moment: 0.000000

Convergence criteria:
 Maximum [total energy] change in last 3 cyles: 0.0002 eV / electron
 Maximum integral of absolute [dens]ity change: 0.001 electrons / valence electron
 Maximum integral of absolute [eigenst]ate change: 0.0001 eV^2 / valence electron
 Maximum number of scf [iter]ations: 333
 (Square brackets indicate name in SCF output, whereas a 'c' in
 the SCF output indicates the quantity has converged.)

Symmetries present (total): 4

  ( 1  0  0)  ( 1  0  0)  (-1  0  0)  (-1  0  0)
  ( 0  1  0)  ( 0 -1  0)  ( 0  1  0)  ( 0 -1  0)
  ( 0  0  1)  ( 0  0 -1)  ( 0  0  1)  ( 0  0 -1)

512 k-points: 8 x 8 x 8 Monkhorst-Pack grid + [1/16,1/16,1/16]
170 k-points in the irreducible part of the Brillouin zone
       k-points in crystal coordinates                weights
   0:     0.00000000    0.00000000    0.00000000          1/512
   1:     0.00000000    0.00000000    0.12500000          2/512
   2:     0.00000000    0.00000000    0.25000000          2/512
   3:     0.00000000    0.00000000    0.37500000          2/512
   4:     0.00000000    0.00000000    0.50000000          1/512
   5:     0.00000000    0.12500000   -0.37500000          2/512
   6:     0.00000000    0.12500000   -0.25000000          2/512
   7:     0.00000000    0.12500000   -0.12500000          2/512
   8:     0.00000000    0.12500000    0.00000000          2/512
   9:     0.00000000    0.12500000    0.12500000          2/512
          ...
 169:     0.50000000    0.50000000    0.50000000          1/512

Wave functions: Plane wave expansion
  Cutoff energy: 750.000 eV
  Number of coefficients (min, max): 2668, 2730
  Pulay-stress correction: 0.000000 eV/Ang^3 (de/decut=0.000000)
  Using Numpy's FFT
  ScaLapack parameters: grid=1x1, blocksize=None
  Wavefunction extrapolation:
    Improved wavefunction reuse through dual PAW basis 

Occupation numbers: Fermi-Dirac: width=0.1000 eV
 

Eigensolver
   Davidson(niter=2) 

Densities:
  Coarse grid: 20*27*32 grid
  Fine grid: 40*54*64 grid
  Total Charge: 0.000000 

Density mixing:
  Method: difference
  Backend: pulay
  Linear mixing parameter: 0.05
  Mixing with 5 old densities
  Damping of long wave oscillations: 50 

Hamiltonian:
  XC and Coulomb potentials evaluated on a 40*54*64 grid
  Using the LDA Exchange-Correlation functional
  External potential:
    NoExternalPotential
 

Memory estimate:
  Process memory now: 987.75 MiB
  Calculator: 371.51 MiB
    Density: 10.03 MiB
      Arrays: 4.61 MiB
      Localized functions: 3.57 MiB
      Mixer: 1.85 MiB
    Hamiltonian: 3.52 MiB
      Arrays: 3.43 MiB
      XC: 0.00 MiB
      Poisson: 0.00 MiB
      vbar: 0.09 MiB
    Wavefunctions: 357.96 MiB
      Arrays psit_nG: 283.26 MiB
      Eigensolver: 1.10 MiB
      Projections: 6.43 MiB
      Projectors: 59.42 MiB
      PW-descriptor: 7.74 MiB

Total number of cores used: 1

Number of atoms: 6
Number of atomic orbitals: 24
Number of bands in calculation: 20
Number of valence electrons: 26
Bands to converge: occupied

... initialized

Initializing position-dependent things.

Density initialized from atomic densities
Creating initial wave functions:
  20 bands from LCAO basis set

   .------.  
  /|      |  
 * | O    |  
 | O      |  
 | | Li   |  
 O |      |  
 | .--O---.  
 |/      /   
 Li-----*    

Positions:
   0 Li     1.480551    1.992835    2.448045    ( 0.0000,  0.0000,  0.0000)
   1 Li     0.000000    0.000000    0.000000    ( 0.0000,  0.0000,  0.0000)
   2 O      1.480551    2.518377    0.419218    ( 0.0000,  0.0000,  0.0000)
   3 O      1.480551    1.467292    4.476872    ( 0.0000,  0.0000,  0.0000)
   4 O      0.000000    0.525542    2.028827    ( 0.0000,  0.0000,  0.0000)
   5 O      0.000000    3.460127    2.867263    ( 0.0000,  0.0000,  0.0000)

Unit cell:
           periodic     x           y           z      points  spacing
  1. axis:    yes    2.961101    0.000000    0.000000    20     0.1481
  2. axis:    yes    0.000000    3.985669    0.000000    27     0.1476
  3. axis:    yes    0.000000    0.000000    4.896090    32     0.1530

  Lengths:   2.961101   3.985669   4.896090
  Angles:   90.000000  90.000000  90.000000

Effective grid spacing dv^(1/3) = 0.1495

     iter     time        total  log10-change:  magmom
                         energy  eigst   dens
iter:   1 23:38:39   -33.154562                  +0.0000
iter:   2 23:39:23   -33.039137  -1.61  -1.03    +0.0000
iter:   3 23:40:09   -32.293888  -1.50  -1.07    +0.0000
iter:   4 23:40:54   -32.285316  -2.06  -1.48    +0.0000
iter:   5 23:41:40   -32.264176  -2.04  -1.70    +0.0000
iter:   6 23:42:27   -32.248881  -3.65  -1.98    +0.0000
iter:   7 23:43:13   -32.246137  -4.24c -2.24    +0.0000
iter:   8 23:44:01   -32.244922c -2.91  -2.35    +0.0000
iter:   9 23:44:47   -32.243852c -4.95c -2.55    +0.0000
iter:  10 23:45:33   -32.244357c -5.36c -2.67    +0.0000
iter:  11 23:46:18   -32.242810c -3.71  -2.60    +0.0000
iter:  12 23:47:05   -32.242834c -5.92c -3.57c   +0.0000

Converged after 12 iterations.

Dipole moment: (0.000000, -0.000000, 0.000000) |e|*Ang

Total magnetic moment: (0.000000, 0.000000, 0.000000)
Local magnetic moments:
   0 Li ( 0.000000,  0.000000,  0.000000)
   1 Li ( 0.000000,  0.000000,  0.000000)
   2 O  ( 0.000000,  0.000000,  0.000000)
   3 O  ( 0.000000,  0.000000,  0.000000)
   4 O  ( 0.000000,  0.000000,  0.000000)
   5 O  ( 0.000000,  0.000000,  0.000000)

Energy contributions relative to reference atoms: (reference = -8510.849865)

Kinetic:        +28.831094
Potential:      -31.060844
External:        +0.000000
XC:             -30.803144
Entropy (-ST):   -0.171800
Local:           +0.875960
--------------------------
Free energy:    -32.328734
Extrapolated:   -32.242834

Spin contamination: 0.000000 electrons
Showing only first 2 kpts
                      Up                     Down
 Kpt  Band  Eigenvalues  Occupancy  Eigenvalues  Occupancy
  0    11      1.83347    0.15048      1.83347    0.15048
  0    12      2.03915    0.02215      2.03915    0.02215
  0    13      2.13115    0.00894      2.13115    0.00894
  0    14      7.90431    0.00000      7.90431    0.00000

  1    11      1.73537    0.32086      1.73537    0.32086
  1    12      2.04392    0.02114      2.04392    0.02114
  1    13      2.12873    0.00916      2.12873    0.00916
  1    14      7.80458    0.00000      7.80458    0.00000


Fermi level: 1.66038

No gap
Timing:                              incl.     excl.
-----------------------------------------------------------
Hamiltonian:                         0.083     0.001   0.0% |
 Atomic:                             0.050     0.003   0.0% |
  XC Correction:                     0.047     0.047   0.0% |
 Calculate atomic Hamiltonians:      0.006     0.006   0.0% |
 Communicate:                        0.000     0.000   0.0% |
 Initialize Hamiltonian:             0.000     0.000   0.0% |
 Poisson:                            0.000     0.000   0.0% |
 XC 3D grid:                         0.025     0.025   0.0% |
LCAO initialization:               254.023     0.031   0.0% |
 LCAO eigensolver:                 227.862     0.016   0.0% |
  Calculate projections:             0.025     0.025   0.0% |
  DenseAtomicCorrection:             0.056     0.056   0.0% |
  Distribute overlap matrix:         0.007     0.007   0.0% |
  Orbital Layouts:                   0.128     0.128   0.0% |
  Potential matrix:                227.473   227.473  28.4% |----------|
  Sum over cells:                    0.158     0.158   0.0% |
 LCAO to grid:                      24.035    24.035   3.0% ||
 Set positions (LCAO WFS):           2.094     0.397   0.0% |
  Basic WFS set positions:           0.001     0.001   0.0% |
  Basis functions set positions:     0.000     0.000   0.0% |
  P tci:                             0.763     0.763   0.1% |
  ST tci:                            0.905     0.905   0.1% |
  mktci:                             0.028     0.028   0.0% |
PWDescriptor:                        0.096     0.096   0.0% |
SCF-cycle:                         546.296     1.540   0.2% |
 Davidson:                         496.169    35.751   4.5% |-|
  Apply H:                         111.380   110.103  13.7% |----|
   HMM T:                            1.277     1.277   0.2% |
  Subspace diag:                   113.183     0.230   0.0% |
   calc_h_matrix:                  109.772     2.066   0.3% |
    Apply H:                       107.706   106.572  13.3% |----|
     HMM T:                          1.135     1.135   0.1% |
   diagonalize:                      0.770     0.770   0.1% |
   rotate_psi:                       2.411     2.411   0.3% |
  calc. matrices:                  227.975    11.962   1.5% ||
   Apply H:                        216.013   213.779  26.7% |----------|
    HMM T:                           2.234     2.234   0.3% |
  diagonalize:                       3.463     3.463   0.4% |
  rotate_psi:                        4.416     4.416   0.6% |
 Density:                           46.585     0.000   0.0% |
  Atomic density matrices:           0.269     0.269   0.0% |
  Mix:                               0.283     0.283   0.0% |
  Multipole moments:                 0.001     0.001   0.0% |
  Pseudo density:                   46.032    46.001   5.7% |-|
   Symmetrize density:               0.031     0.031   0.0% |
 Hamiltonian:                        1.185     0.016   0.0% |
  Atomic:                            0.678     0.044   0.0% |
   XC Correction:                    0.633     0.633   0.1% |
  Calculate atomic Hamiltonians:     0.124     0.124   0.0% |
  Communicate:                       0.000     0.000   0.0% |
  Poisson:                           0.005     0.005   0.0% |
  XC 3D grid:                        0.363     0.363   0.0% |
 Orthonormalize:                     0.817     0.019   0.0% |
  calc_s_matrix:                     0.169     0.169   0.0% |
  inverse-cholesky:                  0.029     0.029   0.0% |
  projections:                       0.498     0.498   0.1% |
  rotate_psi_s:                      0.101     0.101   0.0% |
Set symmetry:                        0.009     0.009   0.0% |
Other:                               1.651     1.651   0.2% |
-----------------------------------------------------------
Total:                                       802.157 100.0%

Memory usage: 987.75 MiB
Date: Mon Jul 25 23:47:05 2022
