
  ___ ___ ___ _ _ _  
 |   |   |_  | | | | 
 | | | | | . | | | | 
 |__ |  _|___|_____|  22.1.0
 |___|_|             

User:   gabrielbirnbaum@Gabriels-MacBook-Pro.local
Date:   Tue Jul 19 12:13:29 2022
Arch:   x86_64
Pid:    15481
Python: 3.9.13
gpaw:   /Users/gabrielbirnbaum/PycharmProjects/nanolithia/venv/lib/python3.9/site-packages/gpaw
_gpaw:  /Users/gabrielbirnbaum/PycharmProjects/nanolithia/venv/lib/python3.9/site-packages/
        _gpaw.cpython-39-darwin.so
ase:    /Users/gabrielbirnbaum/PycharmProjects/nanolithia/venv/lib/python3.9/site-packages/ase (version 3.22.1)
numpy:  /Users/gabrielbirnbaum/PycharmProjects/nanolithia/venv/lib/python3.9/site-packages/numpy (version 1.23.0)
scipy:  /Users/gabrielbirnbaum/PycharmProjects/nanolithia/venv/lib/python3.9/site-packages/scipy (version 1.8.1)
libxc:  5.2.3
units:  Angstrom and eV
cores: 1
OpenMP: False
OMP_NUM_THREADS: 1

Input parameters:
  kpts: {size: (8, 8, 8)}
  mode: {ecut: 500.0,
         name: pw}
  setups: {O: :p,0.33,0}
  xc: PBE

System changes: positions, numbers, cell, pbc, initial_charges, initial_magmoms 

Initialize ...

Li-setup:
  name: Lithium
  id: 830b4218f175192f93f959cfc0aad614
  Z: 3.0
  valence: 1
  core: 2
  charge: 0.0
  file: /Users/gabrielbirnbaum/dft_learning/DIR/gpaw-setups-0.9.20000/Li.PBE.gz
  compensation charges: gauss, rc=0.33, lmax=2
  cutoffs: 1.91(filt), 2.55(core),
  valence states:
                energy  radius
    2s(1.00)    -2.874   1.058
    2p(0.00)    -1.090   1.058
    *s          24.337   1.058

  Using partial waves for Li as LCAO basis

O-setup:
  name: Oxygen
  id: 32ecd46bf208036f09c70b0ec9a88b78
  Z: 8.0
  valence: 6
  core: 2
  charge: 0.0
  Hubbard U: 0.330000 eV (l=1, scale=False)
  file: /Users/gabrielbirnbaum/dft_learning/DIR/gpaw-setups-0.9.20000/O.PBE.gz
  compensation charges: gauss, rc=0.21, lmax=2
  cutoffs: 1.17(filt), 0.83(core),
  valence states:
                energy  radius
    2s(2.00)   -23.961   0.688
    2p(4.00)    -9.029   0.598
    *s           3.251   0.688
    *p          18.182   0.598
    *d           0.000   0.619

  Using partial waves for O as LCAO basis

Reference energy: -8568.984845

Spin-paired calculation

Convergence criteria:
 Maximum [total energy] change in last 3 cyles: 0.0005 eV / electron
 Maximum integral of absolute [dens]ity change: 0.0001 electrons / valence electron
 Maximum integral of absolute [eigenst]ate change: 4e-08 eV^2 / valence electron
 Maximum number of scf [iter]ations: 333
 (Square brackets indicate name in SCF output, whereas a 'c' in
 the SCF output indicates the quantity has converged.)

Symmetries present (total): 4

  ( 1  0  0)  ( 1  0  0)  (-1  0  0)  (-1  0  0)
  ( 0  1  0)  ( 0 -1  0)  ( 0  1  0)  ( 0 -1  0)
  ( 0  0  1)  ( 0  0 -1)  ( 0  0  1)  ( 0  0 -1)

512 k-points: 8 x 8 x 8 Monkhorst-Pack grid
128 k-points in the irreducible part of the Brillouin zone
       k-points in crystal coordinates                weights
   0:     0.06250000    0.06250000   -0.43750000          4/512
   1:     0.06250000    0.06250000   -0.31250000          4/512
   2:     0.06250000    0.06250000   -0.18750000          4/512
   3:     0.06250000    0.06250000   -0.06250000          4/512
   4:     0.06250000    0.06250000    0.06250000          4/512
   5:     0.06250000    0.06250000    0.18750000          4/512
   6:     0.06250000    0.06250000    0.31250000          4/512
   7:     0.06250000    0.06250000    0.43750000          4/512
   8:     0.06250000    0.18750000   -0.43750000          4/512
   9:     0.06250000    0.18750000   -0.31250000          4/512
          ...
 127:     0.43750000    0.43750000    0.43750000          4/512

Wave functions: Plane wave expansion
  Cutoff energy: 500.000 eV
  Number of coefficients (min, max): 1444, 1485
  Pulay-stress correction: 0.000000 eV/Ang^3 (de/decut=0.000000)
  Using Numpy's FFT
  ScaLapack parameters: grid=1x1, blocksize=None
  Wavefunction extrapolation:
    Improved wavefunction reuse through dual PAW basis 

Occupation numbers: Fermi-Dirac: width=0.1000 eV
 

Eigensolver
   Davidson(niter=2) 

Densities:
  Coarse grid: 16*21*27 grid
  Fine grid: 32*42*54 grid
  Total Charge: 0.000000 

Density mixing:
  Method: separate
  Backend: pulay
  Linear mixing parameter: 0.05
  Mixing with 5 old densities
  Damping of long wave oscillations: 50 

Hamiltonian:
  XC and Coulomb potentials evaluated on a 32*42*54 grid
  Using the PBE Exchange-Correlation functional
  External potential:
    NoExternalPotential
 

XC parameters: PBE with 2 nearest neighbor stencil

Memory estimate:
  Process memory now: 669.25 MiB
  Calculator: 94.33 MiB
    Density: 4.44 MiB
      Arrays: 1.80 MiB
      Localized functions: 1.95 MiB
      Mixer: 0.69 MiB
    Hamiltonian: 1.22 MiB
      Arrays: 1.18 MiB
      XC: 0.00 MiB
      Poisson: 0.00 MiB
      vbar: 0.05 MiB
    Wavefunctions: 88.66 MiB
      Arrays psit_nG: 58.01 MiB
      Eigensolver: 0.63 MiB
      Projections: 2.42 MiB
      Projectors: 24.36 MiB
      PW-descriptor: 3.25 MiB

Total number of cores used: 1

Number of atoms: 6
Number of atomic orbitals: 24
Number of bands in calculation: 20
Number of valence electrons: 26
Bands to converge: occupied

... initialized

Initializing position-dependent things.

Density initialized from atomic densities
Creating initial wave functions:
  20 bands from LCAO basis set

   .------.  
  /|      |  
 * | O    |  
 | O      |  
 | | Li   |  
 O |      |  
 | .--O---.  
 |/      /   
 Li-----*    

Positions:
   0 Li     1.480551    1.992835    2.448045    ( 0.0000,  0.0000,  0.0000)
   1 Li     0.000000    0.000000    0.000000    ( 0.0000,  0.0000,  0.0000)
   2 O      1.480551    2.518377    0.419218    ( 0.0000,  0.0000,  0.0000)
   3 O      1.480551    1.467292    4.476872    ( 0.0000,  0.0000,  0.0000)
   4 O      0.000000    0.525542    2.028827    ( 0.0000,  0.0000,  0.0000)
   5 O      0.000000    3.460127    2.867263    ( 0.0000,  0.0000,  0.0000)

Unit cell:
           periodic     x           y           z      points  spacing
  1. axis:    yes    2.961101    0.000000    0.000000    16     0.1851
  2. axis:    yes    0.000000    3.985669    0.000000    21     0.1898
  3. axis:    yes    0.000000    0.000000    4.896090    27     0.1813

  Lengths:   2.961101   3.985669   4.896090
  Angles:   90.000000  90.000000  90.000000

Effective grid spacing dv^(1/3) = 0.1854

     iter     time        total  log10-change:
                         energy  eigst   dens
iter:   1 12:13:48   -28.103405
iter:   2 12:13:59   -28.002666  -1.74  -1.02
iter:   3 12:14:10   -27.355959  -1.56  -1.05
iter:   4 12:14:21   -27.372542  -2.21  -1.48
iter:   5 12:14:31   -27.355115  -2.44  -1.69
iter:   6 12:14:42   -27.350282  -4.15  -2.17
iter:   7 12:14:52   -27.348971c -3.90  -2.37
iter:   8 12:15:03   -27.349144c -3.85  -2.53
iter:   9 12:15:13   -27.349233c -5.13  -2.81
iter:  10 12:15:24   -27.348635c -4.55  -2.76
iter:  11 12:15:34   -27.348572c -5.31  -3.30
iter:  12 12:15:45   -27.348584c -6.30  -3.55
iter:  13 12:15:56   -27.348595c -7.02  -3.63
iter:  14 12:16:07   -27.348607c -6.53  -3.69
iter:  15 12:16:19   -27.348598c -7.25  -3.81
iter:  16 12:16:31   -27.348602c -8.24c -3.95
iter:  17 12:16:42   -27.348613c -7.60c -3.99
iter:  18 12:16:53   -27.348614c -9.02c -4.08c

Converged after 18 iterations.

Dipole moment: (0.000000, 0.000000, -0.000000) |e|*Ang

Energy contributions relative to reference atoms: (reference = -8568.984845)

Kinetic:        +20.720088
Potential:      -20.342261
External:        +0.000000
XC:             -27.798390
Entropy (-ST):   -0.181820
Local:           +0.162860
--------------------------
Free energy:    -27.439524
Extrapolated:   -27.348614

Showing only first 2 kpts
 Kpt  Band  Eigenvalues  Occupancy
  0    11      1.37398    1.99712
  0    12      2.38671    0.05394
  0    13      2.40337    0.04585
  0    14      7.84720    0.00000

  1    11      1.68743    1.93585
  1    12      2.36725    0.06515
  1    13      2.41594    0.04054
  1    14      7.90597    0.00000


Fermi level: 2.02814

No gap
Timing:                              incl.     excl.
-----------------------------------------------------------
Hamiltonian:                         0.161     0.001   0.0% |
 Atomic:                             0.129     0.003   0.0% |
  XC Correction:                     0.126     0.126   0.1% |
 Calculate atomic Hamiltonians:      0.008     0.008   0.0% |
 Communicate:                        0.000     0.000   0.0% |
 Initialize Hamiltonian:             0.000     0.000   0.0% |
 Poisson:                            0.001     0.001   0.0% |
 XC 3D grid:                         0.022     0.022   0.0% |
LCAO initialization:                 7.788     0.033   0.0% |
 LCAO eigensolver:                   0.512     0.004   0.0% |
  Calculate projections:             0.007     0.007   0.0% |
  DenseAtomicCorrection:             0.021     0.021   0.0% |
  Distribute overlap matrix:         0.002     0.002   0.0% |
  Orbital Layouts:                   0.046     0.046   0.0% |
  Potential matrix:                  0.399     0.399   0.2% |
  Sum over cells:                    0.034     0.034   0.0% |
 LCAO to grid:                       5.398     5.398   2.7% ||
 Set positions (LCAO WFS):           1.845     0.265   0.1% |
  Basic WFS set positions:           0.001     0.001   0.0% |
  Basis functions set positions:     0.000     0.000   0.0% |
  P tci:                             0.672     0.672   0.3% |
  ST tci:                            0.879     0.879   0.4% |
  mktci:                             0.028     0.028   0.0% |
PWDescriptor:                        0.030     0.030   0.0% |
SCF-cycle:                         194.863     0.565   0.3% |
 Davidson:                         174.668    12.991   6.4% |--|
  Apply H:                          38.049    37.499  18.4% |------|
   HMM T:                            0.550     0.550   0.3% |
  Subspace diag:                    39.622     0.143   0.1% |
   calc_h_matrix:                   38.093     0.899   0.4% |
    Apply H:                        37.194    36.626  18.0% |------|
     HMM T:                          0.567     0.567   0.3% |
   diagonalize:                      0.510     0.510   0.3% |
   rotate_psi:                       0.876     0.876   0.4% |
  calc. matrices:                   80.095     5.759   2.8% ||
   Apply H:                         74.336    73.265  36.0% |-------------|
    HMM T:                           1.071     1.071   0.5% |
  diagonalize:                       2.313     2.313   1.1% |
  rotate_psi:                        1.598     1.598   0.8% |
 Density:                           16.946     0.000   0.0% |
  Atomic density matrices:           0.196     0.196   0.1% |
  Mix:                               0.162     0.162   0.1% |
  Multipole moments:                 0.002     0.002   0.0% |
  Pseudo density:                   16.586    16.570   8.1% |--|
   Symmetrize density:               0.015     0.015   0.0% |
 Hamiltonian:                        2.473     0.012   0.0% |
  Atomic:                            2.062     0.037   0.0% |
   XC Correction:                    2.025     2.025   1.0% |
  Calculate atomic Hamiltonians:     0.107     0.107   0.1% |
  Communicate:                       0.000     0.000   0.0% |
  Poisson:                           0.003     0.003   0.0% |
  XC 3D grid:                        0.289     0.289   0.1% |
 Orthonormalize:                     0.211     0.008   0.0% |
  calc_s_matrix:                     0.050     0.050   0.0% |
  inverse-cholesky:                  0.010     0.010   0.0% |
  projections:                       0.118     0.118   0.1% |
  rotate_psi_s:                      0.026     0.026   0.0% |
Set symmetry:                        0.010     0.010   0.0% |
Other:                               0.776     0.776   0.4% |
-----------------------------------------------------------
Total:                                       203.628 100.0%

Memory usage: 755.73 MiB
Date: Tue Jul 19 12:16:53 2022
