
  ___ ___ ___ _ _ _  
 |   |   |_  | | | | 
 | | | | | . | | | | 
 |__ |  _|___|_____|  22.1.0
 |___|_|             

User:   gabrielbirnbaum@Gabriels-MacBook-Pro.local
Date:   Mon Jul 25 11:59:34 2022
Arch:   x86_64
Pid:    92584
Python: 3.9.13
gpaw:   /Users/gabrielbirnbaum/PycharmProjects/nanolithia/venv/lib/python3.9/site-packages/gpaw
_gpaw:  /Users/gabrielbirnbaum/PycharmProjects/nanolithia/venv/lib/python3.9/site-packages/
        _gpaw.cpython-39-darwin.so
ase:    /Users/gabrielbirnbaum/PycharmProjects/nanolithia/venv/lib/python3.9/site-packages/ase (version 3.22.1)
numpy:  /Users/gabrielbirnbaum/PycharmProjects/nanolithia/venv/lib/python3.9/site-packages/numpy (version 1.23.0)
scipy:  /Users/gabrielbirnbaum/PycharmProjects/nanolithia/venv/lib/python3.9/site-packages/scipy (version 1.8.1)
libxc:  5.2.3
units:  Angstrom and eV
cores: 1
OpenMP: False
OMP_NUM_THREADS: 1

Input parameters:
  convergence: {density: 0.001,
                eigenstates: 0.0001,
                energy: 0.0002}
  kpts: {gamma: True,
         size: (8, 8, 8)}
  mode: {ecut: 350.0,
         name: pw}
  setups: {O: :p,0.33,0}
  spinpol: True

System changes: positions, numbers, cell, pbc, initial_charges, initial_magmoms 

Initialize ...

Li-setup:
  name: Lithium
  id: b73562207f97a71b6967473b66fe8b65
  Z: 3.0
  valence: 1
  core: 2
  charge: 0.0
  file: /Users/gabrielbirnbaum/dft_learning/DIR/gpaw-setups-0.9.20000/Li.LDA.gz
  compensation charges: gauss, rc=0.33, lmax=2
  cutoffs: 1.91(filt), 2.55(core),
  valence states:
                energy  radius
    2s(1.00)    -2.874   1.058
    2p(0.00)    -1.126   1.058
    *s          24.338   1.058

  Using partial waves for Li as LCAO basis

O-setup:
  name: Oxygen
  id: 9b9d51c344dea68c822856295a461509
  Z: 8.0
  valence: 6
  core: 2
  charge: 0.0
  Hubbard U: 0.330000 eV (l=1, scale=False)
  file: /Users/gabrielbirnbaum/dft_learning/DIR/gpaw-setups-0.9.20000/O.LDA.gz
  compensation charges: gauss, rc=0.21, lmax=2
  cutoffs: 1.17(filt), 0.83(core),
  valence states:
                energy  radius
    2s(2.00)   -23.752   0.688
    2p(4.00)    -9.195   0.598
    *s           3.459   0.688
    *p          18.016   0.598
    *d           0.000   0.619

  Using partial waves for O as LCAO basis

Reference energy: -8510.849865

Spin-polarized calculation.
Magnetic moment: 0.000000

Convergence criteria:
 Maximum [total energy] change in last 3 cyles: 0.0002 eV / electron
 Maximum integral of absolute [dens]ity change: 0.001 electrons / valence electron
 Maximum integral of absolute [eigenst]ate change: 0.0001 eV^2 / valence electron
 Maximum number of scf [iter]ations: 333
 (Square brackets indicate name in SCF output, whereas a 'c' in
 the SCF output indicates the quantity has converged.)

Symmetries present (total): 4

  ( 1  0  0)  ( 1  0  0)  (-1  0  0)  (-1  0  0)
  ( 0  1  0)  ( 0 -1  0)  ( 0  1  0)  ( 0 -1  0)
  ( 0  0  1)  ( 0  0 -1)  ( 0  0  1)  ( 0  0 -1)

512 k-points: 8 x 8 x 8 Monkhorst-Pack grid + [1/16,1/16,1/16]
170 k-points in the irreducible part of the Brillouin zone
       k-points in crystal coordinates                weights
   0:     0.00000000    0.00000000    0.00000000          1/512
   1:     0.00000000    0.00000000    0.12500000          2/512
   2:     0.00000000    0.00000000    0.25000000          2/512
   3:     0.00000000    0.00000000    0.37500000          2/512
   4:     0.00000000    0.00000000    0.50000000          1/512
   5:     0.00000000    0.12500000   -0.37500000          2/512
   6:     0.00000000    0.12500000   -0.25000000          2/512
   7:     0.00000000    0.12500000   -0.12500000          2/512
   8:     0.00000000    0.12500000    0.00000000          2/512
   9:     0.00000000    0.12500000    0.12500000          2/512
          ...
 169:     0.50000000    0.50000000    0.50000000          1/512

Wave functions: Plane wave expansion
  Cutoff energy: 350.000 eV
  Number of coefficients (min, max): 836, 876
  Pulay-stress correction: 0.000000 eV/Ang^3 (de/decut=0.000000)
  Using Numpy's FFT
  ScaLapack parameters: grid=1x1, blocksize=None
  Wavefunction extrapolation:
    Improved wavefunction reuse through dual PAW basis 

Occupation numbers: Fermi-Dirac: width=0.1000 eV
 

Eigensolver
   Davidson(niter=2) 

Densities:
  Coarse grid: 14*18*24 grid
  Fine grid: 28*36*48 grid
  Total Charge: 0.000000 

Density mixing:
  Method: difference
  Backend: pulay
  Linear mixing parameter: 0.05
  Mixing with 5 old densities
  Damping of long wave oscillations: 50 

Hamiltonian:
  XC and Coulomb potentials evaluated on a 28*36*48 grid
  Using the LDA Exchange-Correlation functional
  External potential:
    NoExternalPotential
 

Memory estimate:
  Process memory now: 182.24 MiB
  Calculator: 123.79 MiB
    Density: 3.40 MiB
      Arrays: 1.61 MiB
      Localized functions: 1.14 MiB
      Mixer: 0.65 MiB
    Hamiltonian: 1.23 MiB
      Arrays: 1.20 MiB
      XC: 0.00 MiB
      Poisson: 0.00 MiB
      vbar: 0.03 MiB
    Wavefunctions: 119.16 MiB
      Arrays psit_nG: 90.89 MiB
      Eigensolver: 0.40 MiB
      Projections: 6.43 MiB
      Projectors: 18.93 MiB
      PW-descriptor: 2.50 MiB

Total number of cores used: 1

Number of atoms: 6
Number of atomic orbitals: 24
Number of bands in calculation: 20
Number of valence electrons: 26
Bands to converge: occupied

... initialized

Initializing position-dependent things.

Density initialized from atomic densities
Creating initial wave functions:
  20 bands from LCAO basis set

   .------.  
  /|      |  
 * | O    |  
 | O      |  
 | | Li   |  
 O |      |  
 | .--O---.  
 |/      /   
 Li-----*    

Positions:
   0 Li     1.480551    1.992835    2.448045    ( 0.0000,  0.0000,  0.0000)
   1 Li     0.000000    0.000000    0.000000    ( 0.0000,  0.0000,  0.0000)
   2 O      1.480551    2.518377    0.419218    ( 0.0000,  0.0000,  0.0000)
   3 O      1.480551    1.467292    4.476872    ( 0.0000,  0.0000,  0.0000)
   4 O      0.000000    0.525542    2.028827    ( 0.0000,  0.0000,  0.0000)
   5 O      0.000000    3.460127    2.867263    ( 0.0000,  0.0000,  0.0000)

Unit cell:
           periodic     x           y           z      points  spacing
  1. axis:    yes    2.961101    0.000000    0.000000    14     0.2115
  2. axis:    yes    0.000000    3.985669    0.000000    18     0.2214
  3. axis:    yes    0.000000    0.000000    4.896090    24     0.2040

  Lengths:   2.961101   3.985669   4.896090
  Angles:   90.000000  90.000000  90.000000

Effective grid spacing dv^(1/3) = 0.2122

     iter     time        total  log10-change:  magmom
                         energy  eigst   dens
iter:   1 12:55:23   -18.831919                  +0.0000
iter:   2 12:55:47   -18.706527  -1.71  -1.03    +0.0000
iter:   3 12:56:07   -17.807473  -1.39  -1.06    +0.0000
iter:   4 12:56:27   -17.815402  -2.49  -1.44    +0.0000
iter:   5 12:56:47   -18.095505  -1.45  -1.49    +0.0000
iter:   6 12:57:07   -17.757750  -2.09  -1.41    +0.0000
iter:   7 12:57:27   -17.765986  -3.86  -1.94    +0.0000
iter:   8 12:57:48   -17.738592  -3.16  -1.92    +0.0000
iter:   9 12:58:08   -17.731686  -3.31  -2.29    +0.0000
iter:  10 12:58:28   -17.731743  -5.28c -3.08c   +0.0000
iter:  11 12:58:49   -17.731734c -5.50c -3.23c   +0.0000

Converged after 11 iterations.

Dipole moment: (0.000000, 0.000000, -0.000000) |e|*Ang

Total magnetic moment: (0.000000, 0.000000, 0.000000)
Local magnetic moments:
   0 Li ( 0.000000,  0.000000,  0.000000)
   1 Li ( 0.000000,  0.000000,  0.000000)
   2 O  ( 0.000000,  0.000000,  0.000000)
   3 O  ( 0.000000,  0.000000,  0.000000)
   4 O  ( 0.000000,  0.000000,  0.000000)
   5 O  ( 0.000000,  0.000000,  0.000000)

Energy contributions relative to reference atoms: (reference = -8510.849865)

Kinetic:        -35.465295
Potential:      +43.454234
External:        +0.000000
XC:             -25.275723
Entropy (-ST):   -0.183151
Local:           -0.353375
--------------------------
Free energy:    -17.823310
Extrapolated:   -17.731734

Spin contamination: 0.000000 electrons
Showing only first 2 kpts
                      Up                     Down
 Kpt  Band  Eigenvalues  Occupancy  Eigenvalues  Occupancy
  0    11      2.05482    0.16489      2.05482    0.16489
  0    12      2.22698    0.03410      2.22698    0.03410
  0    13      2.25730    0.02541      2.25730    0.02541
  0    14      8.04858    0.00000      8.04858    0.00000

  1    11      1.96091    0.33556      1.96091    0.33556
  1    12      2.26304    0.02402      2.26304    0.02402
  1    13      2.28718    0.01897      2.28718    0.01897
  1    14      7.92351    0.00000      7.92351    0.00000


Fermi level: 1.89259

No gap
Timing:                              incl.     excl.
-----------------------------------------------------------
Hamiltonian:                         0.075     0.001   0.0% |
 Atomic:                             0.056     0.003   0.0% |
  XC Correction:                     0.053     0.053   0.0% |
 Calculate atomic Hamiltonians:      0.008     0.008   0.0% |
 Communicate:                        0.000     0.000   0.0% |
 Initialize Hamiltonian:             0.000     0.000   0.0% |
 Poisson:                            0.000     0.000   0.0% |
 XC 3D grid:                         0.011     0.011   0.0% |
LCAO initialization:               114.729     0.030   0.0% |
 LCAO eigensolver:                 103.211     0.016   0.0% |
  Calculate projections:             0.024     0.024   0.0% |
  DenseAtomicCorrection:             0.056     0.056   0.0% |
  Distribute overlap matrix:         0.008     0.008   0.0% |
  Orbital Layouts:                   0.137     0.137   0.0% |
  Potential matrix:                102.801   102.801   2.9% ||
  Sum over cells:                    0.168     0.168   0.0% |
 LCAO to grid:                       9.352     9.352   0.3% |
 Set positions (LCAO WFS):           2.136     0.332   0.0% |
  Basic WFS set positions:           0.000     0.000   0.0% |
  Basis functions set positions:     0.000     0.000   0.0% |
  P tci:                             0.813     0.813   0.0% |
  ST tci:                            0.963     0.963   0.0% |
  mktci:                             0.028     0.028   0.0% |
PWDescriptor:                        0.026     0.026   0.0% |
SCF-cycle:                        3440.117     2.161   0.1% |
 Davidson:                        3417.988    14.813   0.4% |
  Apply H:                          43.015    42.313   1.2% |
   HMM T:                            0.702     0.702   0.0% |
  Subspace diag:                    45.515     0.219   0.0% |
   calc_h_matrix:                   43.404     1.156   0.0% |
    Apply H:                        42.248    41.538   1.2% |
     HMM T:                          0.710     0.710   0.0% |
   diagonalize:                      0.996     0.996   0.0% |
   rotate_psi:                       0.895     0.895   0.0% |
  calc. matrices:                 3306.273     6.775   0.2% |
   Apply H:                       3299.497  3298.118  92.8% |------------------------------------|
    HMM T:                           1.379     1.379   0.0% |
  diagonalize:                       6.760     6.760   0.2% |
  rotate_psi:                        1.613     1.613   0.0% |
 Density:                           18.866     0.000   0.0% |
  Atomic density matrices:           0.284     0.284   0.0% |
  Mix:                               0.098     0.098   0.0% |
  Multipole moments:                 0.001     0.001   0.0% |
  Pseudo density:                   18.483    18.471   0.5% |
   Symmetrize density:               0.012     0.012   0.0% |
 Hamiltonian:                        0.734     0.005   0.0% |
  Atomic:                            0.581     0.030   0.0% |
   XC Correction:                    0.551     0.551   0.0% |
  Calculate atomic Hamiltonians:     0.041     0.041   0.0% |
  Communicate:                       0.000     0.000   0.0% |
  Poisson:                           0.004     0.004   0.0% |
  XC 3D grid:                        0.103     0.103   0.0% |
 Orthonormalize:                     0.368     0.021   0.0% |
  calc_s_matrix:                     0.071     0.071   0.0% |
  inverse-cholesky:                  0.025     0.025   0.0% |
  projections:                       0.205     0.205   0.0% |
  rotate_psi_s:                      0.045     0.045   0.0% |
Set symmetry:                        0.009     0.009   0.0% |
Other:                               0.718     0.718   0.0% |
-----------------------------------------------------------
Total:                                      3555.674 100.0%

Memory usage: 443.52 MiB
Date: Mon Jul 25 12:58:49 2022
