
  ___ ___ ___ _ _ _  
 |   |   |_  | | | | 
 | | | | | . | | | | 
 |__ |  _|___|_____|  22.1.0
 |___|_|             

User:   gabrielbirnbaum@Gabriels-MacBook-Pro.local
Date:   Mon Jul 25 13:32:38 2022
Arch:   x86_64
Pid:    92584
Python: 3.9.13
gpaw:   /Users/gabrielbirnbaum/PycharmProjects/nanolithia/venv/lib/python3.9/site-packages/gpaw
_gpaw:  /Users/gabrielbirnbaum/PycharmProjects/nanolithia/venv/lib/python3.9/site-packages/
        _gpaw.cpython-39-darwin.so
ase:    /Users/gabrielbirnbaum/PycharmProjects/nanolithia/venv/lib/python3.9/site-packages/ase (version 3.22.1)
numpy:  /Users/gabrielbirnbaum/PycharmProjects/nanolithia/venv/lib/python3.9/site-packages/numpy (version 1.23.0)
scipy:  /Users/gabrielbirnbaum/PycharmProjects/nanolithia/venv/lib/python3.9/site-packages/scipy (version 1.8.1)
libxc:  5.2.3
units:  Angstrom and eV
cores: 1
OpenMP: False
OMP_NUM_THREADS: 1

Input parameters:
  convergence: {density: 0.001,
                eigenstates: 0.0001,
                energy: 0.0002}
  kpts: {gamma: True,
         size: (8, 8, 8)}
  mode: {ecut: 600.0,
         name: pw}
  setups: {O: :p,0.33,0}
  spinpol: True

System changes: positions, numbers, cell, pbc, initial_charges, initial_magmoms 

Initialize ...

Li-setup:
  name: Lithium
  id: b73562207f97a71b6967473b66fe8b65
  Z: 3.0
  valence: 1
  core: 2
  charge: 0.0
  file: /Users/gabrielbirnbaum/dft_learning/DIR/gpaw-setups-0.9.20000/Li.LDA.gz
  compensation charges: gauss, rc=0.33, lmax=2
  cutoffs: 1.91(filt), 2.55(core),
  valence states:
                energy  radius
    2s(1.00)    -2.874   1.058
    2p(0.00)    -1.126   1.058
    *s          24.338   1.058

  Using partial waves for Li as LCAO basis

O-setup:
  name: Oxygen
  id: 9b9d51c344dea68c822856295a461509
  Z: 8.0
  valence: 6
  core: 2
  charge: 0.0
  Hubbard U: 0.330000 eV (l=1, scale=False)
  file: /Users/gabrielbirnbaum/dft_learning/DIR/gpaw-setups-0.9.20000/O.LDA.gz
  compensation charges: gauss, rc=0.21, lmax=2
  cutoffs: 1.17(filt), 0.83(core),
  valence states:
                energy  radius
    2s(2.00)   -23.752   0.688
    2p(4.00)    -9.195   0.598
    *s           3.459   0.688
    *p          18.016   0.598
    *d           0.000   0.619

  Using partial waves for O as LCAO basis

Reference energy: -8510.849865

Spin-polarized calculation.
Magnetic moment: 0.000000

Convergence criteria:
 Maximum [total energy] change in last 3 cyles: 0.0002 eV / electron
 Maximum integral of absolute [dens]ity change: 0.001 electrons / valence electron
 Maximum integral of absolute [eigenst]ate change: 0.0001 eV^2 / valence electron
 Maximum number of scf [iter]ations: 333
 (Square brackets indicate name in SCF output, whereas a 'c' in
 the SCF output indicates the quantity has converged.)

Symmetries present (total): 4

  ( 1  0  0)  ( 1  0  0)  (-1  0  0)  (-1  0  0)
  ( 0  1  0)  ( 0 -1  0)  ( 0  1  0)  ( 0 -1  0)
  ( 0  0  1)  ( 0  0 -1)  ( 0  0  1)  ( 0  0 -1)

512 k-points: 8 x 8 x 8 Monkhorst-Pack grid + [1/16,1/16,1/16]
170 k-points in the irreducible part of the Brillouin zone
       k-points in crystal coordinates                weights
   0:     0.00000000    0.00000000    0.00000000          1/512
   1:     0.00000000    0.00000000    0.12500000          2/512
   2:     0.00000000    0.00000000    0.25000000          2/512
   3:     0.00000000    0.00000000    0.37500000          2/512
   4:     0.00000000    0.00000000    0.50000000          1/512
   5:     0.00000000    0.12500000   -0.37500000          2/512
   6:     0.00000000    0.12500000   -0.25000000          2/512
   7:     0.00000000    0.12500000   -0.12500000          2/512
   8:     0.00000000    0.12500000    0.00000000          2/512
   9:     0.00000000    0.12500000    0.12500000          2/512
          ...
 169:     0.50000000    0.50000000    0.50000000          1/512

Wave functions: Plane wave expansion
  Cutoff energy: 600.000 eV
  Number of coefficients (min, max): 1898, 1960
  Pulay-stress correction: 0.000000 eV/Ang^3 (de/decut=0.000000)
  Using Numpy's FFT
  ScaLapack parameters: grid=1x1, blocksize=None
  Wavefunction extrapolation:
    Improved wavefunction reuse through dual PAW basis 

Occupation numbers: Fermi-Dirac: width=0.1000 eV
 

Eigensolver
   Davidson(niter=2) 

Densities:
  Coarse grid: 18*24*28 grid
  Fine grid: 36*48*56 grid
  Total Charge: 0.000000 

Density mixing:
  Method: difference
  Backend: pulay
  Linear mixing parameter: 0.05
  Mixing with 5 old densities
  Damping of long wave oscillations: 50 

Hamiltonian:
  XC and Coulomb potentials evaluated on a 36*48*56 grid
  Using the LDA Exchange-Correlation functional
  External potential:
    NoExternalPotential
 

Memory estimate:
  Process memory now: 709.96 MiB
  Calculator: 268.22 MiB
    Density: 7.08 MiB
      Arrays: 3.23 MiB
      Localized functions: 2.56 MiB
      Mixer: 1.29 MiB
    Hamiltonian: 2.46 MiB
      Arrays: 2.40 MiB
      XC: 0.00 MiB
      Poisson: 0.00 MiB
      vbar: 0.06 MiB
    Wavefunctions: 258.68 MiB
      Arrays psit_nG: 203.37 MiB
      Eigensolver: 0.81 MiB
      Projections: 6.43 MiB
      Projectors: 42.52 MiB
      PW-descriptor: 5.55 MiB

Total number of cores used: 1

Number of atoms: 6
Number of atomic orbitals: 24
Number of bands in calculation: 20
Number of valence electrons: 26
Bands to converge: occupied

... initialized

Initializing position-dependent things.

Density initialized from atomic densities
Creating initial wave functions:
  20 bands from LCAO basis set

   .------.  
  /|      |  
 * | O    |  
 | O      |  
 | | Li   |  
 O |      |  
 | .--O---.  
 |/      /   
 Li-----*    

Positions:
   0 Li     1.480551    1.992835    2.448045    ( 0.0000,  0.0000,  0.0000)
   1 Li     0.000000    0.000000    0.000000    ( 0.0000,  0.0000,  0.0000)
   2 O      1.480551    2.518377    0.419218    ( 0.0000,  0.0000,  0.0000)
   3 O      1.480551    1.467292    4.476872    ( 0.0000,  0.0000,  0.0000)
   4 O      0.000000    0.525542    2.028827    ( 0.0000,  0.0000,  0.0000)
   5 O      0.000000    3.460127    2.867263    ( 0.0000,  0.0000,  0.0000)

Unit cell:
           periodic     x           y           z      points  spacing
  1. axis:    yes    2.961101    0.000000    0.000000    18     0.1645
  2. axis:    yes    0.000000    3.985669    0.000000    24     0.1661
  3. axis:    yes    0.000000    0.000000    4.896090    28     0.1749

  Lengths:   2.961101   3.985669   4.896090
  Angles:   90.000000  90.000000  90.000000

Effective grid spacing dv^(1/3) = 0.1684

     iter     time        total  log10-change:  magmom
                         energy  eigst   dens
iter:   1 13:37:16   -32.804671                  +0.0000
iter:   2 13:38:07   -32.689948  -1.68  -1.03    +0.0000
iter:   3 13:39:02   -31.948533  -1.53  -1.07    +0.0000
iter:   4 13:40:01   -31.937502  -2.12  -1.49    +0.0000
iter:   5 13:40:46   -31.919729  -2.19  -1.71    +0.0000
iter:   6 13:41:49   -31.905459  -3.77  -1.99    +0.0000
iter:   7 13:42:45   -31.904349  -5.03c -2.23    +0.0000
iter:   8 13:43:40   -31.903760c -2.81  -2.28    +0.0000
iter:   9 13:44:26   -31.900335c -4.07c -2.40    +0.0000
iter:  10 13:45:07   -31.900163c -5.24c -2.69    +0.0000
iter:  11 13:45:48   -31.899682c -4.62c -2.74    +0.0000
iter:  12 13:46:53   -31.899523c -4.90c -3.17c   +0.0000

Converged after 12 iterations.

Dipole moment: (-0.000000, 0.000000, -0.000000) |e|*Ang

Total magnetic moment: (0.000000, 0.000000, 0.000000)
Local magnetic moments:
   0 Li ( 0.000000,  0.000000,  0.000000)
   1 Li ( 0.000000,  0.000000,  0.000000)
   2 O  ( 0.000000,  0.000000,  0.000000)
   3 O  ( 0.000000,  0.000000,  0.000000)
   4 O  ( 0.000000,  0.000000,  0.000000)
   5 O  ( 0.000000,  0.000000,  0.000000)

Energy contributions relative to reference atoms: (reference = -8510.849865)

Kinetic:        +26.242921
Potential:      -27.979195
External:        +0.000000
XC:             -30.662189
Entropy (-ST):   -0.171203
Local:           +0.584542
--------------------------
Free energy:    -31.985124
Extrapolated:   -31.899523

Spin contamination: 0.000000 electrons
Showing only first 2 kpts
                      Up                     Down
 Kpt  Band  Eigenvalues  Occupancy  Eigenvalues  Occupancy
  0    11      1.83690    0.15209      1.83690    0.15209
  0    12      2.04437    0.02203      2.04437    0.02203
  0    13      2.13937    0.00864      2.13937    0.00864
  0    14      7.90507    0.00000      7.90507    0.00000

  1    11      1.74121    0.31835      1.74121    0.31835
  1    12      2.05160    0.02053      2.05160    0.02053
  1    13      2.13791    0.00876      2.13791    0.00876
  1    14      7.80633    0.00000      7.80633    0.00000


Fermi level: 1.66507

No gap
Timing:                              incl.     excl.
-----------------------------------------------------------
Hamiltonian:                         0.165     0.002   0.0% |
 Atomic:                             0.108     0.006   0.0% |
  XC Correction:                     0.102     0.102   0.0% |
 Calculate atomic Hamiltonians:      0.013     0.013   0.0% |
 Communicate:                        0.000     0.000   0.0% |
 Initialize Hamiltonian:             0.000     0.000   0.0% |
 Poisson:                            0.001     0.001   0.0% |
 XC 3D grid:                         0.041     0.041   0.0% |
LCAO initialization:               238.399     0.063   0.0% |
 LCAO eigensolver:                 210.171     0.017   0.0% |
  Calculate projections:             0.021     0.021   0.0% |
  DenseAtomicCorrection:             0.060     0.060   0.0% |
  Distribute overlap matrix:         0.009     0.009   0.0% |
  Orbital Layouts:                   0.142     0.142   0.0% |
  Potential matrix:                209.730   209.730  24.5% |---------|
  Sum over cells:                    0.193     0.193   0.0% |
 LCAO to grid:                      23.633    23.633   2.8% ||
 Set positions (LCAO WFS):           4.532     0.689   0.1% |
  Basic WFS set positions:           0.001     0.001   0.0% |
  Basis functions set positions:     0.000     0.000   0.0% |
  P tci:                             1.754     1.754   0.2% |
  ST tci:                            2.037     2.037   0.2% |
  mktci:                             0.050     0.050   0.0% |
PWDescriptor:                        0.184     0.184   0.0% |
SCF-cycle:                         614.940     2.403   0.3% |
 Davidson:                         554.980    36.954   4.3% |-|
  Apply H:                         121.392   119.925  14.0% |-----|
   HMM T:                            1.467     1.467   0.2% |
  Subspace diag:                   126.822     0.351   0.0% |
   calc_h_matrix:                  122.354     2.751   0.3% |
    Apply H:                       119.603   118.131  13.8% |-----|
     HMM T:                          1.471     1.471   0.2% |
   diagonalize:                      1.432     1.432   0.2% |
   rotate_psi:                       2.685     2.685   0.3% |
  calc. matrices:                  258.464    18.723   2.2% ||
   Apply H:                        239.741   236.862  27.7% |----------|
    HMM T:                           2.880     2.880   0.3% |
  diagonalize:                       6.510     6.510   0.8% |
  rotate_psi:                        4.839     4.839   0.6% |
 Density:                           55.236     0.000   0.0% |
  Atomic density matrices:           0.454     0.454   0.1% |
  Mix:                               0.368     0.368   0.0% |
  Multipole moments:                 0.002     0.002   0.0% |
  Pseudo density:                   54.412    54.375   6.4% |--|
   Symmetrize density:               0.037     0.037   0.0% |
 Hamiltonian:                        1.556     0.017   0.0% |
  Atomic:                            0.977     0.069   0.0% |
   XC Correction:                    0.908     0.908   0.1% |
  Calculate atomic Hamiltonians:     0.153     0.153   0.0% |
  Communicate:                       0.000     0.000   0.0% |
  Poisson:                           0.005     0.005   0.0% |
  XC 3D grid:                        0.403     0.403   0.0% |
 Orthonormalize:                     0.766     0.023   0.0% |
  calc_s_matrix:                     0.226     0.226   0.0% |
  inverse-cholesky:                  0.027     0.027   0.0% |
  projections:                       0.401     0.401   0.0% |
  rotate_psi_s:                      0.089     0.089   0.0% |
Set symmetry:                        0.018     0.018   0.0% |
Other:                               2.236     2.236   0.3% |
-----------------------------------------------------------
Total:                                       855.942 100.0%

Memory usage: 798.95 MiB
Date: Mon Jul 25 13:46:54 2022
