
  ___ ___ ___ _ _ _  
 |   |   |_  | | | | 
 | | | | | . | | | | 
 |__ |  _|___|_____|  22.1.0
 |___|_|             

User:   gabrielbirnbaum@Gabriels-MacBook-Pro.local
Date:   Tue Jul 26 02:57:15 2022
Arch:   x86_64
Pid:    92584
Python: 3.9.13
gpaw:   /Users/gabrielbirnbaum/PycharmProjects/nanolithia/venv/lib/python3.9/site-packages/gpaw
_gpaw:  /Users/gabrielbirnbaum/PycharmProjects/nanolithia/venv/lib/python3.9/site-packages/
        _gpaw.cpython-39-darwin.so
ase:    /Users/gabrielbirnbaum/PycharmProjects/nanolithia/venv/lib/python3.9/site-packages/ase (version 3.22.1)
numpy:  /Users/gabrielbirnbaum/PycharmProjects/nanolithia/venv/lib/python3.9/site-packages/numpy (version 1.23.0)
scipy:  /Users/gabrielbirnbaum/PycharmProjects/nanolithia/venv/lib/python3.9/site-packages/scipy (version 1.8.1)
libxc:  5.2.3
units:  Angstrom and eV
cores: 1
OpenMP: False
OMP_NUM_THREADS: 1

Input parameters:
  convergence: {density: 0.001,
                eigenstates: 0.0001,
                energy: 0.0002}
  kpts: {gamma: True,
         size: (9, 9, 9)}
  mode: {ecut: 500.0,
         name: pw}
  setups: {O: :p,0.33,0}
  spinpol: True

System changes: positions, numbers, cell, pbc, initial_charges, initial_magmoms 

Initialize ...

Li-setup:
  name: Lithium
  id: b73562207f97a71b6967473b66fe8b65
  Z: 3.0
  valence: 1
  core: 2
  charge: 0.0
  file: /Users/gabrielbirnbaum/dft_learning/DIR/gpaw-setups-0.9.20000/Li.LDA.gz
  compensation charges: gauss, rc=0.33, lmax=2
  cutoffs: 1.91(filt), 2.55(core),
  valence states:
                energy  radius
    2s(1.00)    -2.874   1.058
    2p(0.00)    -1.126   1.058
    *s          24.338   1.058

  Using partial waves for Li as LCAO basis

O-setup:
  name: Oxygen
  id: 9b9d51c344dea68c822856295a461509
  Z: 8.0
  valence: 6
  core: 2
  charge: 0.0
  Hubbard U: 0.330000 eV (l=1, scale=False)
  file: /Users/gabrielbirnbaum/dft_learning/DIR/gpaw-setups-0.9.20000/O.LDA.gz
  compensation charges: gauss, rc=0.21, lmax=2
  cutoffs: 1.17(filt), 0.83(core),
  valence states:
                energy  radius
    2s(2.00)   -23.752   0.688
    2p(4.00)    -9.195   0.598
    *s           3.459   0.688
    *p          18.016   0.598
    *d           0.000   0.619

  Using partial waves for O as LCAO basis

Reference energy: -8510.849865

Spin-polarized calculation.
Magnetic moment: 0.000000

Convergence criteria:
 Maximum [total energy] change in last 3 cyles: 0.0002 eV / electron
 Maximum integral of absolute [dens]ity change: 0.001 electrons / valence electron
 Maximum integral of absolute [eigenst]ate change: 0.0001 eV^2 / valence electron
 Maximum number of scf [iter]ations: 333
 (Square brackets indicate name in SCF output, whereas a 'c' in
 the SCF output indicates the quantity has converged.)

Symmetries present (total): 4

  ( 1  0  0)  ( 1  0  0)  (-1  0  0)  (-1  0  0)
  ( 0  1  0)  ( 0 -1  0)  ( 0  1  0)  ( 0 -1  0)
  ( 0  0  1)  ( 0  0 -1)  ( 0  0  1)  ( 0  0 -1)

729 k-points: 9 x 9 x 9 Monkhorst-Pack grid
205 k-points in the irreducible part of the Brillouin zone
       k-points in crystal coordinates                weights
   0:     0.00000000    0.00000000    0.00000000          1/729
   1:     0.00000000    0.00000000    0.11111111          2/729
   2:     0.00000000    0.00000000    0.22222222          2/729
   3:     0.00000000    0.00000000    0.33333333          2/729
   4:     0.00000000    0.00000000    0.44444444          2/729
   5:     0.00000000    0.11111111   -0.44444444          2/729
   6:     0.00000000    0.11111111   -0.33333333          2/729
   7:     0.00000000    0.11111111   -0.22222222          2/729
   8:     0.00000000    0.11111111   -0.11111111          2/729
   9:     0.00000000    0.11111111    0.00000000          2/729
          ...
 204:     0.44444444    0.44444444    0.44444444          4/729

Wave functions: Plane wave expansion
  Cutoff energy: 500.000 eV
  Number of coefficients (min, max): 1445, 1486
  Pulay-stress correction: 0.000000 eV/Ang^3 (de/decut=0.000000)
  Using Numpy's FFT
  ScaLapack parameters: grid=1x1, blocksize=None
  Wavefunction extrapolation:
    Improved wavefunction reuse through dual PAW basis 

Occupation numbers: Fermi-Dirac: width=0.1000 eV
 

Eigensolver
   Davidson(niter=2) 

Densities:
  Coarse grid: 16*21*27 grid
  Fine grid: 32*42*54 grid
  Total Charge: 0.000000 

Density mixing:
  Method: difference
  Backend: pulay
  Linear mixing parameter: 0.05
  Mixing with 5 old densities
  Damping of long wave oscillations: 50 

Hamiltonian:
  XC and Coulomb potentials evaluated on a 32*42*54 grid
  Using the LDA Exchange-Correlation functional
  External potential:
    NoExternalPotential
 

Memory estimate:
  Process memory now: 1398.61 MiB
  Calculator: 245.53 MiB
    Density: 5.34 MiB
      Arrays: 2.42 MiB
      Localized functions: 1.95 MiB
      Mixer: 0.97 MiB
    Hamiltonian: 1.85 MiB
      Arrays: 1.80 MiB
      XC: 0.00 MiB
      Poisson: 0.00 MiB
      vbar: 0.05 MiB
    Wavefunctions: 238.34 MiB
      Arrays psit_nG: 185.93 MiB
      Eigensolver: 0.63 MiB
      Projections: 7.76 MiB
      Projectors: 39.03 MiB
      PW-descriptor: 4.99 MiB

Total number of cores used: 1

Number of atoms: 6
Number of atomic orbitals: 24
Number of bands in calculation: 20
Number of valence electrons: 26
Bands to converge: occupied

... initialized

Initializing position-dependent things.

Density initialized from atomic densities
Creating initial wave functions:
  20 bands from LCAO basis set

   .------.  
  /|      |  
 * | O    |  
 | O      |  
 | | Li   |  
 O |      |  
 | .--O---.  
 |/      /   
 Li-----*    

Positions:
   0 Li     1.480551    1.992835    2.448045    ( 0.0000,  0.0000,  0.0000)
   1 Li     0.000000    0.000000    0.000000    ( 0.0000,  0.0000,  0.0000)
   2 O      1.480551    2.518377    0.419218    ( 0.0000,  0.0000,  0.0000)
   3 O      1.480551    1.467292    4.476872    ( 0.0000,  0.0000,  0.0000)
   4 O      0.000000    0.525542    2.028827    ( 0.0000,  0.0000,  0.0000)
   5 O      0.000000    3.460127    2.867263    ( 0.0000,  0.0000,  0.0000)

Unit cell:
           periodic     x           y           z      points  spacing
  1. axis:    yes    2.961101    0.000000    0.000000    16     0.1851
  2. axis:    yes    0.000000    3.985669    0.000000    21     0.1898
  3. axis:    yes    0.000000    0.000000    4.896090    27     0.1813

  Lengths:   2.961101   3.985669   4.896090
  Angles:   90.000000  90.000000  90.000000

Effective grid spacing dv^(1/3) = 0.1854

     iter     time        total  log10-change:  magmom
                         energy  eigst   dens
iter:   1 04:38:49   -31.342309                  +0.0000
iter:   2 05:44:23   -31.236646  -1.73  -1.03    +0.0000
iter:   3 06:02:21   -30.524777  -1.59  -1.07    +0.0000
iter:   4 06:04:53   -30.506809  -2.25  -1.50    +0.0000
iter:   5 07:31:59   -30.485880  -2.61  -1.72    +0.0000
iter:   6 07:32:33   -30.479609  -3.80  -2.15    +0.0000
iter:   7 07:53:07   -30.478480  -4.14c -2.51    +0.0000
iter:   8 08:10:21   -30.478716c -4.48c -2.79    +0.0000
iter:   9 08:20:59   -30.478510c -4.20c -2.89    +0.0000
iter:  10 08:21:32   -30.478328c -5.03c -3.01c   +0.0000

Converged after 10 iterations.

Dipole moment: (0.000000, -0.000000, -0.000000) |e|*Ang

Total magnetic moment: (0.000000, 0.000000, 0.000000)
Local magnetic moments:
   0 Li ( 0.000000,  0.000000,  0.000000)
   1 Li ( 0.000000,  0.000000,  0.000000)
   2 O  ( 0.000000,  0.000000,  0.000000)
   3 O  ( 0.000000,  0.000000,  0.000000)
   4 O  ( 0.000000,  0.000000,  0.000000)
   5 O  ( 0.000000,  0.000000,  0.000000)

Energy contributions relative to reference atoms: (reference = -8510.849865)

Kinetic:        +17.106943
Potential:      -17.648829
External:        +0.000000
XC:             -30.006965
Entropy (-ST):   -0.171102
Local:           +0.156075
--------------------------
Free energy:    -30.563879
Extrapolated:   -30.478328

Spin contamination: 0.000000 electrons
Showing only first 2 kpts
                      Up                     Down
 Kpt  Band  Eigenvalues  Occupancy  Eigenvalues  Occupancy
  0    11      1.85574    0.13460      1.85574    0.13460
  0    12      2.05034    0.02174      2.05034    0.02174
  0    13      2.14173    0.00883      2.14173    0.00883
  0    14      7.89277    0.00000      7.89277    0.00000

  1    11      1.77234    0.26370      1.77234    0.26370
  1    12      2.05431    0.02091      2.05431    0.02091
  1    13      2.14302    0.00872      2.14302    0.00872
  1    14      7.81229    0.00000      7.81229    0.00000


Fermi level: 1.66966

No gap
Timing:                              incl.     excl.
-----------------------------------------------------------
Hamiltonian:                         0.370     0.002   0.0% |
 Atomic:                             0.259     0.014   0.0% |
  XC Correction:                     0.246     0.246   0.0% |
 Calculate atomic Hamiltonians:      0.022     0.022   0.0% |
 Communicate:                        0.000     0.000   0.0% |
 Initialize Hamiltonian:             0.000     0.000   0.0% |
 Poisson:                            0.001     0.001   0.0% |
 XC 3D grid:                         0.085     0.085   0.0% |
LCAO initialization:              4219.385     0.164   0.0% |
 LCAO eigensolver:                3254.901     0.048   0.0% |
  Calculate projections:             0.066     0.066   0.0% |
  DenseAtomicCorrection:             0.189     0.189   0.0% |
  Distribute overlap matrix:         0.026     0.026   0.0% |
  Orbital Layouts:                   0.487     0.487   0.0% |
  Potential matrix:               3253.483  3253.483  16.7% |------|
  Sum over cells:                    0.602     0.602   0.0% |
 LCAO to grid:                     951.877   951.877   4.9% |-|
 Set positions (LCAO WFS):          12.442     1.833   0.0% |
  Basic WFS set positions:           0.002     0.002   0.0% |
  Basis functions set positions:     0.000     0.000   0.0% |
  P tci:                             4.842     4.842   0.0% |
  ST tci:                            5.656     5.656   0.0% |
  mktci:                             0.110     0.110   0.0% |
PWDescriptor:                        0.395     0.395   0.0% |
SCF-cycle:                       15232.060     4.058   0.0% |
 Davidson:                       14185.448  3893.344  20.0% |-------|
  Apply H:                        1968.077  1965.995  10.1% |---|
   HMM T:                            2.082     2.082   0.0% |
  Subspace diag:                  2839.821     0.566   0.0% |
   calc_h_matrix:                 1644.229     5.205   0.0% |
    Apply H:                      1639.024  1636.956   8.4% |--|
     HMM T:                          2.067     2.067   0.0% |
   diagonalize:                      1.830     1.830   0.0% |
   rotate_psi:                    1193.196  1193.196   6.1% |-|
  calc. matrices:                 5468.518  5175.952  26.6% |----------|
   Apply H:                        292.567   288.577   1.5% ||
    HMM T:                           3.990     3.990   0.0% |
  diagonalize:                       9.193     9.193   0.0% |
  rotate_psi:                        6.495     6.495   0.0% |
 Density:                         1038.802     0.000   0.0% |
  Atomic density matrices:           0.758     0.758   0.0% |
  Mix:                               0.308     0.308   0.0% |
  Multipole moments:                 0.003     0.003   0.0% |
  Pseudo density:                 1037.733  1037.693   5.3% |-|
   Symmetrize density:               0.040     0.040   0.0% |
 Hamiltonian:                        1.843     0.016   0.0% |
  Atomic:                            1.318     0.071   0.0% |
   XC Correction:                    1.247     1.247   0.0% |
  Calculate atomic Hamiltonians:     0.131     0.131   0.0% |
  Communicate:                       0.000     0.000   0.0% |
  Poisson:                           0.005     0.005   0.0% |
  XC 3D grid:                        0.373     0.373   0.0% |
 Orthonormalize:                     1.910     0.054   0.0% |
  calc_s_matrix:                     0.829     0.829   0.0% |
  inverse-cholesky:                  0.061     0.061   0.0% |
  projections:                       0.794     0.794   0.0% |
  rotate_psi_s:                      0.172     0.172   0.0% |
Set symmetry:                        0.057     0.057   0.0% |
Other:                               4.986     4.986   0.0% |
-----------------------------------------------------------
Total:                                     19457.253 100.0%

Memory usage: 1.39 GiB
Date: Tue Jul 26 08:21:32 2022
