
  ___ ___ ___ _ _ _  
 |   |   |_  | | | | 
 | | | | | . | | | | 
 |__ |  _|___|_____|  22.1.0
 |___|_|             

User:   gabrielbirnbaum@Gabriels-MacBook-Pro.local
Date:   Tue Jul 26 09:12:44 2022
Arch:   x86_64
Pid:    92584
Python: 3.9.13
gpaw:   /Users/gabrielbirnbaum/PycharmProjects/nanolithia/venv/lib/python3.9/site-packages/gpaw
_gpaw:  /Users/gabrielbirnbaum/PycharmProjects/nanolithia/venv/lib/python3.9/site-packages/
        _gpaw.cpython-39-darwin.so
ase:    /Users/gabrielbirnbaum/PycharmProjects/nanolithia/venv/lib/python3.9/site-packages/ase (version 3.22.1)
numpy:  /Users/gabrielbirnbaum/PycharmProjects/nanolithia/venv/lib/python3.9/site-packages/numpy (version 1.23.0)
scipy:  /Users/gabrielbirnbaum/PycharmProjects/nanolithia/venv/lib/python3.9/site-packages/scipy (version 1.8.1)
libxc:  5.2.3
units:  Angstrom and eV
cores: 1
OpenMP: False
OMP_NUM_THREADS: 1

Input parameters:
  kpts: {gamma: True,
         size: (8, 8, 8)}
  mode: {ecut: 400.0,
         name: pw}
  setups: {O: :p,1.05,0}

System changes: positions, numbers, cell, pbc, initial_charges, initial_magmoms 

Initialize ...

O-setup:
  name: Oxygen
  id: 9b9d51c344dea68c822856295a461509
  Z: 8.0
  valence: 6
  core: 2
  charge: 0.0
  Hubbard U: 1.050000 eV (l=1, scale=False)
  file: /Users/gabrielbirnbaum/dft_learning/DIR/gpaw-setups-0.9.20000/O.LDA.gz
  compensation charges: gauss, rc=0.21, lmax=2
  cutoffs: 1.17(filt), 0.83(core),
  valence states:
                energy  radius
    2s(2.00)   -23.752   0.688
    2p(4.00)    -9.195   0.598
    *s           3.459   0.688
    *p          18.016   0.598
    *d           0.000   0.619

  Using partial waves for O as LCAO basis

Reference energy: -8111.632273

Spin-paired calculation

Convergence criteria:
 Maximum [total energy] change in last 3 cyles: 0.0005 eV / electron
 Maximum integral of absolute [dens]ity change: 0.0001 electrons / valence electron
 Maximum integral of absolute [eigenst]ate change: 4e-08 eV^2 / valence electron
 Maximum number of scf [iter]ations: 333
 (Square brackets indicate name in SCF output, whereas a 'c' in
 the SCF output indicates the quantity has converged.)

Symmetries present (total): 4

  ( 1  0  0)  ( 1  0  0)  (-1  0  0)  (-1  0  0)
  ( 0  1  0)  ( 0 -1  0)  ( 0  1  0)  ( 0 -1  0)
  ( 0  0  1)  ( 0  0  1)  ( 0  0 -1)  ( 0  0 -1)

512 k-points: 8 x 8 x 8 Monkhorst-Pack grid + [1/16,1/16,1/16]
170 k-points in the irreducible part of the Brillouin zone
       k-points in crystal coordinates                weights
   0:     0.00000000    0.00000000    0.00000000          1/512
   1:     0.00000000    0.00000000    0.12500000          2/512
   2:     0.00000000    0.00000000    0.25000000          2/512
   3:     0.00000000    0.00000000    0.37500000          2/512
   4:     0.00000000    0.00000000    0.50000000          1/512
   5:     0.00000000    0.12500000    0.00000000          2/512
   6:     0.00000000    0.12500000    0.12500000          4/512
   7:     0.00000000    0.12500000    0.25000000          4/512
   8:     0.00000000    0.12500000    0.37500000          4/512
   9:     0.00000000    0.12500000    0.50000000          2/512
          ...
 169:     0.50000000    0.50000000    0.50000000          1/512

Wave functions: Plane wave expansion
  Cutoff energy: 400.000 eV
  Number of coefficients (min, max): 1313, 1360
  Pulay-stress correction: 0.000000 eV/Ang^3 (de/decut=0.000000)
  Using Numpy's FFT
  ScaLapack parameters: grid=1x1, blocksize=None
  Wavefunction extrapolation:
    Improved wavefunction reuse through dual PAW basis 

Occupation numbers: Fermi-Dirac: width=0.1000 eV
 

Eigensolver
   Davidson(niter=2) 

Densities:
  Coarse grid: 27*18*20 grid
  Fine grid: 54*36*40 grid
  Total Charge: 0.000000 

Density mixing:
  Method: separate
  Backend: pulay
  Linear mixing parameter: 0.05
  Mixing with 5 old densities
  Damping of long wave oscillations: 50 

Hamiltonian:
  XC and Coulomb potentials evaluated on a 54*36*40 grid
  Using the LDA Exchange-Correlation functional
  External potential:
    NoExternalPotential
 

Memory estimate:
  Process memory now: 1566.25 MiB
  Calculator: 92.72 MiB
    Density: 4.09 MiB
      Arrays: 1.93 MiB
      Localized functions: 1.42 MiB
      Mixer: 0.74 MiB
    Hamiltonian: 1.29 MiB
      Arrays: 1.26 MiB
      XC: 0.00 MiB
      Poisson: 0.00 MiB
      vbar: 0.03 MiB
    Wavefunctions: 87.34 MiB
      Arrays psit_nG: 56.45 MiB
      Eigensolver: 0.48 MiB
      Projections: 2.16 MiB
      Projectors: 24.37 MiB
      PW-descriptor: 3.90 MiB

Total number of cores used: 1

Number of atoms: 4
Number of atomic orbitals: 16
Number of bands in calculation: 16
Number of valence electrons: 24
Bands to converge: occupied

... initialized

Initializing position-dependent things.

Density initialized from atomic densities
Creating initial wave functions:
  16 bands from LCAO basis set

                       
                       
                       
                       
             O         
                       
       O               
          O            
                       
            O          
                       
                       
                       
                       

Positions:
   0 O      1.766737    0.792178   -3.122947    ( 0.0000,  0.0000,  0.0000)
   1 O      0.000000   -0.070820   -0.612542    ( 0.0000,  0.0000,  0.0000)
   2 O      0.000000    3.590005   -3.122947    ( 0.0000,  0.0000,  0.0000)
   3 O      1.766737    2.727007   -0.612542    ( 0.0000,  0.0000,  0.0000)

Unit cell:
           periodic     x           y           z      points  spacing
  1. axis:    yes    0.000000    5.595654    0.000000    27     0.1811
  2. axis:    yes    3.533474    0.000000    0.000000    18     0.1963
  3. axis:    yes    0.000000   -2.076469   -3.735489    20     0.1868

  Lengths:   5.595654   3.533474   4.273828
  Angles:   90.000000 119.068636  90.000000

Effective grid spacing dv^(1/3) = 0.1966

     iter     time        total  log10-change:
                         energy  eigst   dens
iter:   1 09:13:05   -11.432333
iter:   2 09:13:19   -11.440303  -1.28  -1.22
iter:   3 09:13:32   -11.109522  -1.72  -1.25
iter:   4 09:13:46   -11.100441  -2.20  -1.57
iter:   5 09:14:00   -11.106422c -3.03  -1.68
iter:   6 09:14:14   -11.135834  -1.86  -1.82
iter:   7 09:18:17   -11.086567  -2.88  -1.85
iter:   8 09:33:21   -11.089389  -4.62  -2.32
iter:   9 09:33:36   -11.080428c -3.00  -2.25
iter:  10 09:33:49   -11.080734c -4.56  -2.89
iter:  11 09:34:03   -11.080657c -5.69  -3.31
iter:  12 09:34:18   -11.080529c -5.20  -3.45
iter:  13 09:34:32   -11.080670c -5.44  -3.44
iter:  14 09:34:45   -11.080638c -7.13  -3.96
iter:  15 09:34:59   -11.080635c -8.45c -4.31c

Converged after 15 iterations.

Dipole moment: (0.000000, -0.000000, -0.000000) |e|*Ang

Energy contributions relative to reference atoms: (reference = -8111.632273)

Kinetic:        -19.474237
Potential:      +19.266248
External:        +0.000000
XC:             -10.444635
Entropy (-ST):   -0.310003
Local:           -0.273010
--------------------------
Free energy:    -11.235637
Extrapolated:   -11.080635

Showing only first 2 kpts
 Kpt  Band  Eigenvalues  Occupancy
  0    10     -2.16186    1.97451
  0    11     -1.56712    0.33663
  0    12     -1.46939    0.14154
  0    13     -1.37315    0.05654

  1    10     -2.18967    1.98064
  1    11     -1.56083    0.31938
  1    12     -1.52110    0.22653
  1    13     -1.43928    0.10669


Fermi level: -1.72689

No gap
Timing:                              incl.     excl.
-----------------------------------------------------------
Hamiltonian:                         0.048     0.001   0.0% |
 Atomic:                             0.029     0.002   0.0% |
  XC Correction:                     0.026     0.026   0.0% |
 Calculate atomic Hamiltonians:      0.008     0.008   0.0% |
 Communicate:                        0.000     0.000   0.0% |
 Initialize Hamiltonian:             0.000     0.000   0.0% |
 Poisson:                            0.000     0.000   0.0% |
 XC 3D grid:                         0.011     0.011   0.0% |
LCAO initialization:                 6.892     0.018   0.0% |
 LCAO eigensolver:                   0.217     0.004   0.0% |
  Calculate projections:             0.004     0.004   0.0% |
  DenseAtomicCorrection:             0.016     0.016   0.0% |
  Distribute overlap matrix:         0.002     0.002   0.0% |
  Orbital Layouts:                   0.025     0.025   0.0% |
  Potential matrix:                  0.136     0.136   0.0% |
  Sum over cells:                    0.030     0.030   0.0% |
 LCAO to grid:                       5.671     5.671   0.4% |
 Set positions (LCAO WFS):           0.987     0.105   0.0% |
  Basic WFS set positions:           0.001     0.001   0.0% |
  Basis functions set positions:     0.000     0.000   0.0% |
  P tci:                             0.422     0.422   0.0% |
  ST tci:                            0.444     0.444   0.0% |
  mktci:                             0.016     0.016   0.0% |
PWDescriptor:                        0.124     0.124   0.0% |
SCF-cycle:                        1327.223     0.688   0.1% |
 Davidson:                        1307.296    11.072   0.8% |
  Apply H:                         921.643   921.155  69.0% |---------------------------|
   HMM T:                            0.488     0.488   0.0% |
  Subspace diag:                    47.604     0.160   0.0% |
   calc_h_matrix:                   46.275     1.225   0.1% |
    Apply H:                        45.050    44.550   3.3% ||
     HMM T:                          0.501     0.501   0.0% |
   diagonalize:                      0.444     0.444   0.0% |
   rotate_psi:                       0.725     0.725   0.1% |
  calc. matrices:                  323.700    14.792   1.1% |
   Apply H:                        308.907   307.964  23.1% |--------|
    HMM T:                           0.943     0.943   0.1% |
  diagonalize:                       1.975     1.975   0.1% |
  rotate_psi:                        1.301     1.301   0.1% |
 Density:                           18.241     0.000   0.0% |
  Atomic density matrices:           0.144     0.144   0.0% |
  Mix:                               0.162     0.162   0.0% |
  Multipole moments:                 0.002     0.002   0.0% |
  Pseudo density:                   17.933    17.918   1.3% ||
   Symmetrize density:               0.014     0.014   0.0% |
 Hamiltonian:                        0.574     0.022   0.0% |
  Atomic:                            0.354     0.026   0.0% |
   XC Correction:                    0.328     0.328   0.0% |
  Calculate atomic Hamiltonians:     0.081     0.081   0.0% |
  Communicate:                       0.000     0.000   0.0% |
  Poisson:                           0.003     0.003   0.0% |
  XC 3D grid:                        0.114     0.114   0.0% |
 Orthonormalize:                     0.423     0.010   0.0% |
  calc_s_matrix:                     0.273     0.273   0.0% |
  inverse-cholesky:                  0.012     0.012   0.0% |
  projections:                       0.107     0.107   0.0% |
  rotate_psi_s:                      0.022     0.022   0.0% |
Set symmetry:                        0.010     0.010   0.0% |
Other:                               0.569     0.569   0.0% |
-----------------------------------------------------------
Total:                                      1334.867 100.0%

Memory usage: 1.54 GiB
Date: Tue Jul 26 09:34:59 2022
