
  ___ ___ ___ _ _ _  
 |   |   |_  | | | | 
 | | | | | . | | | | 
 |__ |  _|___|_____|  22.1.0
 |___|_|             

User:   gabrielbirnbaum@Gabriels-MacBook-Pro.local
Date:   Sat Jul 30 11:01:00 2022
Arch:   x86_64
Pid:    7518
Python: 3.9.13
gpaw:   /Users/gabrielbirnbaum/PycharmProjects/nanolithia/venv/lib/python3.9/site-packages/gpaw
_gpaw:  /Users/gabrielbirnbaum/PycharmProjects/nanolithia/venv/lib/python3.9/site-packages/
        _gpaw.cpython-39-darwin.so
ase:    /Users/gabrielbirnbaum/PycharmProjects/nanolithia/venv/lib/python3.9/site-packages/ase (version 3.22.1)
numpy:  /Users/gabrielbirnbaum/PycharmProjects/nanolithia/venv/lib/python3.9/site-packages/numpy (version 1.23.0)
scipy:  /Users/gabrielbirnbaum/PycharmProjects/nanolithia/venv/lib/python3.9/site-packages/scipy (version 1.8.1)
libxc:  5.2.3
units:  Angstrom and eV
cores: 1
OpenMP: False
OMP_NUM_THREADS: 1

Input parameters:
  kpts: {gamma: True,
         size: (4, 4, 4)}
  mode: {ecut: 900.0000000000001,
         name: pw}
  setups: {O: :p,0.75,0}
  xc: PBE

System changes: positions, numbers, cell, pbc, initial_charges, initial_magmoms 

Initialize ...

O-setup:
  name: Oxygen
  id: 32ecd46bf208036f09c70b0ec9a88b78
  Z: 8.0
  valence: 6
  core: 2
  charge: 0.0
  Hubbard U: 0.750000 eV (l=1, scale=False)
  file: /Users/gabrielbirnbaum/dft_learning/DIR/gpaw-setups-0.9.20000/O.PBE.gz
  compensation charges: gauss, rc=0.21, lmax=2
  cutoffs: 1.17(filt), 0.83(core),
  valence states:
                energy  radius
    2s(2.00)   -23.961   0.688
    2p(4.00)    -9.029   0.598
    *s           3.251   0.688
    *p          18.182   0.598
    *d           0.000   0.619

  Using partial waves for O as LCAO basis

Reference energy: -8163.409205

Spin-paired calculation

Convergence criteria:
 Maximum [total energy] change in last 3 cyles: 0.0005 eV / electron
 Maximum integral of absolute [dens]ity change: 0.0001 electrons / valence electron
 Maximum integral of absolute [eigenst]ate change: 4e-08 eV^2 / valence electron
 Maximum number of scf [iter]ations: 333
 (Square brackets indicate name in SCF output, whereas a 'c' in
 the SCF output indicates the quantity has converged.)

Symmetries present (total): 4

  ( 1  0  0)  ( 1  0  0)  (-1  0  0)  (-1  0  0)
  ( 0  1  0)  ( 0 -1  0)  ( 0  1  0)  ( 0 -1  0)
  ( 0  0  1)  ( 0  0  1)  ( 0  0 -1)  ( 0  0 -1)

64 k-points: 4 x 4 x 4 Monkhorst-Pack grid + [1/8,1/8,1/8]
30 k-points in the irreducible part of the Brillouin zone
       k-points in crystal coordinates                weights
   0:     0.00000000    0.00000000    0.00000000          1/64
   1:     0.00000000    0.00000000    0.25000000          2/64
   2:     0.00000000    0.00000000    0.50000000          1/64
   3:     0.00000000    0.25000000    0.00000000          2/64
   4:     0.00000000    0.25000000    0.25000000          4/64
   5:     0.00000000    0.25000000    0.50000000          2/64
   6:     0.00000000    0.50000000    0.00000000          1/64
   7:     0.00000000    0.50000000    0.25000000          2/64
   8:     0.00000000    0.50000000    0.50000000          1/64
   9:     0.25000000    0.00000000   -0.25000000          2/64
          ...
  29:     0.50000000    0.50000000    0.50000000          1/64

Wave functions: Plane wave expansion
  Cutoff energy: 900.000 eV
  Number of coefficients (min, max): 4496, 4561
  Pulay-stress correction: 0.000000 eV/Ang^3 (de/decut=0.000000)
  Using Numpy's FFT
  ScaLapack parameters: grid=1x1, blocksize=None
  Wavefunction extrapolation:
    Improved wavefunction reuse through dual PAW basis 

Occupation numbers: Fermi-Dirac: width=0.1000 eV
 

Eigensolver
   Davidson(niter=2) 

Densities:
  Coarse grid: 40*25*30 grid
  Fine grid: 80*50*60 grid
  Total Charge: 0.000000 

Density mixing:
  Method: separate
  Backend: pulay
  Linear mixing parameter: 0.05
  Mixing with 5 old densities
  Damping of long wave oscillations: 50 

Hamiltonian:
  XC and Coulomb potentials evaluated on a 80*50*60 grid
  Using the PBE Exchange-Correlation functional
  External potential:
    NoExternalPotential
 

XC parameters: PBE with 2 nearest neighbor stencil

Memory estimate:
  Process memory now: 124.34 MiB
  Calculator: 70.05 MiB
    Density: 13.03 MiB
      Arrays: 5.95 MiB
      Localized functions: 4.79 MiB
      Mixer: 2.29 MiB
    Hamiltonian: 3.99 MiB
      Arrays: 3.89 MiB
      XC: 0.00 MiB
      Poisson: 0.00 MiB
      vbar: 0.10 MiB
    Wavefunctions: 53.03 MiB
      Arrays psit_nG: 33.41 MiB
      Eigensolver: 1.50 MiB
      Projections: 0.38 MiB
      Projectors: 14.51 MiB
      PW-descriptor: 3.23 MiB

Total number of cores used: 1

Number of atoms: 4
Number of atomic orbitals: 16
Number of bands in calculation: 16
Number of valence electrons: 24
Bands to converge: occupied

... initialized

Initializing position-dependent things.

Density initialized from atomic densities
Creating initial wave functions:
  16 bands from LCAO basis set

                       
                       
                       
                       
             O         
                       
       O               
          O            
                       
            O          
                       
                       
                       
                       

Positions:
   0 O      1.766737    0.792178   -3.122947    ( 0.0000,  0.0000,  0.0000)
   1 O      0.000000   -0.070820   -0.612542    ( 0.0000,  0.0000,  0.0000)
   2 O      0.000000    3.590005   -3.122947    ( 0.0000,  0.0000,  0.0000)
   3 O      1.766737    2.727007   -0.612542    ( 0.0000,  0.0000,  0.0000)

Unit cell:
           periodic     x           y           z      points  spacing
  1. axis:    yes    0.000000    5.595654    0.000000    40     0.1223
  2. axis:    yes    3.533474    0.000000    0.000000    25     0.1413
  3. axis:    yes    0.000000   -2.076469   -3.735489    30     0.1245

  Lengths:   5.595654   3.533474   4.273828
  Angles:   90.000000 119.068636  90.000000

Effective grid spacing dv^(1/3) = 0.1350

     iter     time        total  log10-change:
                         energy  eigst   dens
iter:   1 11:01:07   -17.594638
iter:   2 11:01:12   -17.599068  -1.22  -1.23
iter:   3 11:01:18   -17.279398  -1.58  -1.27
iter:   4 11:01:23   -17.285533  -1.99  -1.65
iter:   5 11:01:28   -17.284186c -3.42  -1.94
iter:   6 11:01:34   -17.288190c -2.26  -1.94
iter:   7 11:01:39   -17.274206  -3.11  -2.08
iter:   8 11:01:45   -17.274141  -4.71  -2.78
iter:   9 11:01:51   -17.276480c -3.36  -2.84
iter:  10 11:01:56   -17.274409c -4.02  -2.56
iter:  11 11:02:02   -17.274426c -5.91  -3.20
iter:  12 11:02:08   -17.274272c -5.14  -3.19
iter:  13 11:02:13   -17.274329c -5.87  -3.35
iter:  14 11:02:19   -17.274275c -6.04  -3.38
iter:  15 11:02:24   -17.274274c -5.74  -3.47
iter:  16 11:02:30   -17.274312c -5.99  -3.55
iter:  17 11:02:36   -17.274290c -7.11  -3.68
iter:  18 11:02:41   -17.274278c -6.94  -3.70
iter:  19 11:02:47   -17.274267c -7.30  -3.86
iter:  20 11:02:53   -17.274262c -7.62c -3.96
iter:  21 11:02:58   -17.274258c -8.07c -4.54c

Converged after 21 iterations.

Dipole moment: (-0.000000, -0.000000, -0.000000) |e|*Ang

Energy contributions relative to reference atoms: (reference = -8163.409205)

Kinetic:        +19.377915
Potential:      -24.629244
External:        +0.000000
XC:             -12.787611
Entropy (-ST):   -0.315940
Local:           +0.922653
--------------------------
Free energy:    -17.432228
Extrapolated:   -17.274258

Showing only first 2 kpts
 Kpt  Band  Eigenvalues  Occupancy
  0    10     -2.03212    1.97874
  0    11     -1.40474    0.29849
  0    12     -1.34081    0.16945
  0    13     -1.32584    0.14763

  1    10     -1.96625    1.95932
  1    11     -1.50241    0.63564
  1    12     -1.31971    0.13947
  1    13     -1.27364    0.09031


Fermi level: -1.57879

No gap
Timing:                              incl.     excl.
-----------------------------------------------------------
Hamiltonian:                         0.168     0.001   0.0% |
 Atomic:                             0.091     0.002   0.0% |
  XC Correction:                     0.089     0.089   0.1% |
 Calculate atomic Hamiltonians:      0.010     0.010   0.0% |
 Communicate:                        0.000     0.000   0.0% |
 Initialize Hamiltonian:             0.000     0.000   0.0% |
 Poisson:                            0.001     0.001   0.0% |
 XC 3D grid:                         0.065     0.065   0.1% |
LCAO initialization:                 2.386     0.011   0.0% |
 LCAO eigensolver:                   0.326     0.001   0.0% |
  Calculate projections:             0.001     0.001   0.0% |
  DenseAtomicCorrection:             0.003     0.003   0.0% |
  Distribute overlap matrix:         0.000     0.000   0.0% |
  Orbital Layouts:                   0.004     0.004   0.0% |
  Potential matrix:                  0.312     0.312   0.3% |
  Sum over cells:                    0.005     0.005   0.0% |
 LCAO to grid:                       1.836     1.836   1.5% ||
 Set positions (LCAO WFS):           0.213     0.021   0.0% |
  Basic WFS set positions:           0.000     0.000   0.0% |
  Basis functions set positions:     0.000     0.000   0.0% |
  P tci:                             0.096     0.096   0.1% |
  ST tci:                            0.083     0.083   0.1% |
  mktci:                             0.013     0.013   0.0% |
PWDescriptor:                        0.023     0.023   0.0% |
SCF-cycle:                         115.684     0.138   0.1% |
 Davidson:                         100.956     7.432   6.3% |--|
  Apply H:                          22.469    22.155  18.7% |------|
   HMM T:                            0.314     0.314   0.3% |
  Subspace diag:                    23.744     0.035   0.0% |
   calc_h_matrix:                   23.168     0.424   0.4% |
    Apply H:                        22.744    22.544  19.0% |-------|
     HMM T:                          0.200     0.200   0.2% |
   diagonalize:                      0.102     0.102   0.1% |
   rotate_psi:                       0.439     0.439   0.4% |
  calc. matrices:                   46.149     2.402   2.0% ||
   Apply H:                         43.747    43.280  36.5% |--------------|
    HMM T:                           0.466     0.466   0.4% |
  diagonalize:                       0.364     0.364   0.3% |
  rotate_psi:                        0.798     0.798   0.7% |
 Density:                           11.038     0.000   0.0% |
  Atomic density matrices:           0.043     0.043   0.0% |
  Mix:                               0.584     0.584   0.5% |
  Multipole moments:                 0.002     0.002   0.0% |
  Pseudo density:                   10.408    10.351   8.7% |--|
   Symmetrize density:               0.057     0.057   0.0% |
 Hamiltonian:                        3.462     0.044   0.0% |
  Atomic:                            1.780     0.042   0.0% |
   XC Correction:                    1.738     1.738   1.5% ||
  Calculate atomic Hamiltonians:     0.273     0.273   0.2% |
  Communicate:                       0.000     0.000   0.0% |
  Poisson:                           0.015     0.015   0.0% |
  XC 3D grid:                        1.350     1.350   1.1% |
 Orthonormalize:                     0.091     0.002   0.0% |
  calc_s_matrix:                     0.015     0.015   0.0% |
  inverse-cholesky:                  0.002     0.002   0.0% |
  projections:                       0.062     0.062   0.1% |
  rotate_psi_s:                      0.010     0.010   0.0% |
Set symmetry:                        0.002     0.002   0.0% |
Other:                               0.443     0.443   0.4% |
-----------------------------------------------------------
Total:                                       118.707 100.0%

Memory usage: 409.24 MiB
Date: Sat Jul 30 11:02:58 2022
