
  ___ ___ ___ _ _ _  
 |   |   |_  | | | | 
 | | | | | . | | | | 
 |__ |  _|___|_____|  22.1.0
 |___|_|             

User:   gabrielbirnbaum@Gabriels-MacBook-Pro.local
Date:   Thu Jul 21 18:07:28 2022
Arch:   x86_64
Pid:    99929
Python: 3.9.13
gpaw:   /Users/gabrielbirnbaum/PycharmProjects/nanolithia/venv/lib/python3.9/site-packages/gpaw
_gpaw:  /Users/gabrielbirnbaum/PycharmProjects/nanolithia/venv/lib/python3.9/site-packages/
        _gpaw.cpython-39-darwin.so
ase:    /Users/gabrielbirnbaum/PycharmProjects/nanolithia/venv/lib/python3.9/site-packages/ase (version 3.22.1)
numpy:  /Users/gabrielbirnbaum/PycharmProjects/nanolithia/venv/lib/python3.9/site-packages/numpy (version 1.23.0)
scipy:  /Users/gabrielbirnbaum/PycharmProjects/nanolithia/venv/lib/python3.9/site-packages/scipy (version 1.8.1)
libxc:  5.2.3
units:  Angstrom and eV
cores: 1
OpenMP: False
OMP_NUM_THREADS: 1

Input parameters:
  kpts: {gamma: True,
         size: (8, 8, 8)}
  mode: {ecut: 700.0,
         name: pw}
  setups: {O: :p,1.05,0}
  xc: PBE

System changes: positions, numbers, cell, pbc, initial_charges, initial_magmoms 

Initialize ...

O-setup:
  name: Oxygen
  id: 32ecd46bf208036f09c70b0ec9a88b78
  Z: 8.0
  valence: 6
  core: 2
  charge: 0.0
  Hubbard U: 1.050000 eV (l=1, scale=False)
  file: /Users/gabrielbirnbaum/dft_learning/DIR/gpaw-setups-0.9.20000/O.PBE.gz
  compensation charges: gauss, rc=0.21, lmax=2
  cutoffs: 1.17(filt), 0.83(core),
  valence states:
                energy  radius
    2s(2.00)   -23.961   0.688
    2p(4.00)    -9.029   0.598
    *s           3.251   0.688
    *p          18.182   0.598
    *d           0.000   0.619

  Using partial waves for O as LCAO basis

Reference energy: -8163.409205

Spin-paired calculation

Convergence criteria:
 Maximum [total energy] change in last 3 cyles: 0.0005 eV / electron
 Maximum integral of absolute [dens]ity change: 0.0001 electrons / valence electron
 Maximum integral of absolute [eigenst]ate change: 4e-08 eV^2 / valence electron
 Maximum number of scf [iter]ations: 333
 (Square brackets indicate name in SCF output, whereas a 'c' in
 the SCF output indicates the quantity has converged.)

Symmetries present (total): 4

  ( 1  0  0)  ( 1  0  0)  (-1  0  0)  (-1  0  0)
  ( 0  1  0)  ( 0 -1  0)  ( 0  1  0)  ( 0 -1  0)
  ( 0  0  1)  ( 0  0  1)  ( 0  0 -1)  ( 0  0 -1)

512 k-points: 8 x 8 x 8 Monkhorst-Pack grid + [1/16,1/16,1/16]
170 k-points in the irreducible part of the Brillouin zone
       k-points in crystal coordinates                weights
   0:     0.00000000    0.00000000    0.00000000          1/512
   1:     0.00000000    0.00000000    0.12500000          2/512
   2:     0.00000000    0.00000000    0.25000000          2/512
   3:     0.00000000    0.00000000    0.37500000          2/512
   4:     0.00000000    0.00000000    0.50000000          1/512
   5:     0.00000000    0.12500000    0.00000000          2/512
   6:     0.00000000    0.12500000    0.12500000          4/512
   7:     0.00000000    0.12500000    0.25000000          4/512
   8:     0.00000000    0.12500000    0.37500000          4/512
   9:     0.00000000    0.12500000    0.50000000          2/512
          ...
 169:     0.50000000    0.50000000    0.50000000          1/512

Wave functions: Plane wave expansion
  Cutoff energy: 700.000 eV
  Number of coefficients (min, max): 3080, 3126
  Pulay-stress correction: 0.000000 eV/Ang^3 (de/decut=0.000000)
  Using Numpy's FFT
  ScaLapack parameters: grid=1x1, blocksize=None
  Wavefunction extrapolation:
    Improved wavefunction reuse through dual PAW basis 

Occupation numbers: Fermi-Dirac: width=0.1000 eV
 

Eigensolver
   Davidson(niter=2) 

Densities:
  Coarse grid: 35*24*27 grid
  Fine grid: 70*48*54 grid
  Total Charge: 0.000000 

Density mixing:
  Method: separate
  Backend: pulay
  Linear mixing parameter: 0.05
  Mixing with 5 old densities
  Damping of long wave oscillations: 50 

Hamiltonian:
  XC and Coulomb potentials evaluated on a 70*48*54 grid
  Using the PBE Exchange-Correlation functional
  External potential:
    NoExternalPotential
 

XC parameters: PBE with 2 nearest neighbor stencil

Memory estimate:
  Process memory now: 860.63 MiB
  Calculator: 210.84 MiB
    Density: 9.51 MiB
      Arrays: 4.50 MiB
      Localized functions: 3.28 MiB
      Mixer: 1.73 MiB
    Hamiltonian: 3.01 MiB
      Arrays: 2.94 MiB
      XC: 0.00 MiB
      Poisson: 0.00 MiB
      vbar: 0.07 MiB
    Wavefunctions: 198.32 MiB
      Arrays psit_nG: 129.74 MiB
      Eigensolver: 1.04 MiB
      Projections: 2.16 MiB
      Projectors: 56.40 MiB
      PW-descriptor: 8.97 MiB

Total number of cores used: 1

Number of atoms: 4
Number of atomic orbitals: 16
Number of bands in calculation: 16
Number of valence electrons: 24
Bands to converge: occupied

... initialized

Initializing position-dependent things.

Density initialized from atomic densities
Creating initial wave functions:
  16 bands from LCAO basis set

                       
                       
                       
                       
             O         
                       
       O               
          O            
                       
            O          
                       
                       
                       
                       

Positions:
   0 O      1.766737    0.792178   -3.122947    ( 0.0000,  0.0000,  0.0000)
   1 O      0.000000   -0.070820   -0.612542    ( 0.0000,  0.0000,  0.0000)
   2 O      0.000000    3.590005   -3.122947    ( 0.0000,  0.0000,  0.0000)
   3 O      1.766737    2.727007   -0.612542    ( 0.0000,  0.0000,  0.0000)

Unit cell:
           periodic     x           y           z      points  spacing
  1. axis:    yes    0.000000    5.595654    0.000000    35     0.1397
  2. axis:    yes    3.533474    0.000000    0.000000    24     0.1472
  3. axis:    yes    0.000000   -2.076469   -3.735489    27     0.1384

  Lengths:   5.595654   3.533474   4.273828
  Angles:   90.000000 119.068636  90.000000

Effective grid spacing dv^(1/3) = 0.1482

     iter     time        total  log10-change:
                         energy  eigst   dens
iter:   1 18:08:04   -16.696554
iter:   2 18:08:32   -16.700730  -1.25  -1.23
iter:   3 18:09:00   -16.392132  -1.60  -1.27
iter:   4 18:09:27   -16.401825  -2.02  -1.66
iter:   5 18:09:57   -16.395421c -3.55  -1.95
iter:   6 18:10:28   -16.401692c -2.49  -1.94
iter:   7 18:10:57   -16.391047c -3.22  -2.15
iter:   8 18:11:27   -16.391008c -4.76  -2.90
iter:   9 18:12:01   -16.391339c -4.21  -2.96
iter:  10 18:12:37   -16.391484c -4.65  -2.95
iter:  11 18:13:09   -16.391265c -5.19  -3.10
iter:  12 18:13:39   -16.391242c -6.17  -3.30
iter:  13 18:14:10   -16.391205c -6.35  -3.33
iter:  14 18:14:40   -16.391190c -6.61  -3.38
iter:  15 18:15:15   -16.391188c -7.58c -3.62
iter:  16 18:15:49   -16.391199c -6.68  -3.68
iter:  17 18:16:18   -16.391202c -7.91c -4.01c

Converged after 17 iterations.

Dipole moment: (-0.000000, -0.000000, -0.000000) |e|*Ang

Energy contributions relative to reference atoms: (reference = -8163.409205)

Kinetic:        +18.322668
Potential:      -23.509077
External:        +0.000000
XC:             -11.876812
Entropy (-ST):   -0.313800
Local:           +0.828919
--------------------------
Free energy:    -16.548102
Extrapolated:   -16.391202

Showing only first 2 kpts
 Kpt  Band  Eigenvalues  Occupancy
  0    10     -2.02355    1.97903
  0    11     -1.39463    0.29817
  0    12     -1.33087    0.16952
  0    13     -1.31632    0.14826

  1    10     -2.00962    1.97594
  1    11     -1.36966    0.24021
  1    12     -1.36826    0.23727
  1    13     -1.31098    0.14110


Fermi level: -1.56881

No gap
Timing:                              incl.     excl.
-----------------------------------------------------------
Hamiltonian:                         0.190     0.003   0.0% |
 Atomic:                             0.105     0.002   0.0% |
  XC Correction:                     0.103     0.103   0.0% |
 Calculate atomic Hamiltonians:      0.013     0.013   0.0% |
 Communicate:                        0.000     0.000   0.0% |
 Initialize Hamiltonian:             0.000     0.000   0.0% |
 Poisson:                            0.001     0.001   0.0% |
 XC 3D grid:                         0.068     0.068   0.0% |
LCAO initialization:                11.588     0.016   0.0% |
 LCAO eigensolver:                   0.376     0.004   0.0% |
  Calculate projections:             0.004     0.004   0.0% |
  DenseAtomicCorrection:             0.016     0.016   0.0% |
  Distribute overlap matrix:         0.002     0.002   0.0% |
  Orbital Layouts:                   0.026     0.026   0.0% |
  Potential matrix:                  0.295     0.295   0.1% |
  Sum over cells:                    0.029     0.029   0.0% |
 LCAO to grid:                      10.202    10.202   1.9% ||
 Set positions (LCAO WFS):           0.994     0.098   0.0% |
  Basic WFS set positions:           0.001     0.001   0.0% |
  Basis functions set positions:     0.000     0.000   0.0% |
  P tci:                             0.418     0.418   0.1% |
  ST tci:                            0.462     0.462   0.1% |
  mktci:                             0.015     0.015   0.0% |
PWDescriptor:                        0.104     0.104   0.0% |
SCF-cycle:                         517.575     0.557   0.1% |
 Davidson:                         465.171    31.984   6.0% |-|
  Apply H:                          99.897    98.381  18.5% |------|
   HMM T:                            1.516     1.516   0.3% |
  Subspace diag:                   112.596     0.211   0.0% |
   calc_h_matrix:                  110.013     1.625   0.3% |
    Apply H:                       108.389   107.394  20.2% |-------|
     HMM T:                          0.995     0.995   0.2% |
   diagonalize:                      0.582     0.582   0.1% |
   rotate_psi:                       1.790     1.790   0.3% |
  calc. matrices:                  215.028    12.506   2.4% ||
   Apply H:                        202.522   197.807  37.3% |--------------|
    HMM T:                           4.715     4.715   0.9% |
  diagonalize:                       2.352     2.352   0.4% |
  rotate_psi:                        3.315     3.315   0.6% |
 Density:                           48.324     0.000   0.0% |
  Atomic density matrices:           0.202     0.202   0.0% |
  Mix:                               0.379     0.379   0.1% |
  Multipole moments:                 0.002     0.002   0.0% |
  Pseudo density:                   47.740    47.698   9.0% |---|
   Symmetrize density:               0.041     0.041   0.0% |
 Hamiltonian:                        2.995     0.027   0.0% |
  Atomic:                            1.721     0.046   0.0% |
   XC Correction:                    1.675     1.675   0.3% |
  Calculate atomic Hamiltonians:     0.182     0.182   0.0% |
  Communicate:                       0.000     0.000   0.0% |
  Poisson:                           0.015     0.015   0.0% |
  XC 3D grid:                        1.049     1.049   0.2% |
 Orthonormalize:                     0.529     0.010   0.0% |
  calc_s_matrix:                     0.219     0.219   0.0% |
  inverse-cholesky:                  0.012     0.012   0.0% |
  projections:                       0.244     0.244   0.0% |
  rotate_psi_s:                      0.044     0.044   0.0% |
Set symmetry:                        0.011     0.011   0.0% |
Other:                               1.216     1.216   0.2% |
-----------------------------------------------------------
Total:                                       530.684 100.0%

Memory usage: 872.84 MiB
Date: Thu Jul 21 18:16:18 2022
