
  ___ ___ ___ _ _ _  
 |   |   |_  | | | | 
 | | | | | . | | | | 
 |__ |  _|___|_____|  22.1.0
 |___|_|             

User:   gabrielbirnbaum@Gabriels-MacBook-Pro.local
Date:   Sat Jul 30 09:29:58 2022
Arch:   x86_64
Pid:    93242
Python: 3.9.13
gpaw:   /Users/gabrielbirnbaum/PycharmProjects/nanolithia/venv/lib/python3.9/site-packages/gpaw
_gpaw:  /Users/gabrielbirnbaum/PycharmProjects/nanolithia/venv/lib/python3.9/site-packages/
        _gpaw.cpython-39-darwin.so
ase:    /Users/gabrielbirnbaum/PycharmProjects/nanolithia/venv/lib/python3.9/site-packages/ase (version 3.22.1)
numpy:  /Users/gabrielbirnbaum/PycharmProjects/nanolithia/venv/lib/python3.9/site-packages/numpy (version 1.23.0)
scipy:  /Users/gabrielbirnbaum/PycharmProjects/nanolithia/venv/lib/python3.9/site-packages/scipy (version 1.8.1)
libxc:  5.2.3
units:  Angstrom and eV
cores: 1
OpenMP: False
OMP_NUM_THREADS: 1

Input parameters:
  kpts: {gamma: True,
         size: (4, 4, 4)}
  mode: {ecut: 500.0,
         name: pw}
  setups: {O: :p,1.05,0}
  xc: PBE

System changes: positions, numbers, cell, pbc, initial_charges, initial_magmoms 

Initialize ...

O-setup:
  name: Oxygen
  id: 32ecd46bf208036f09c70b0ec9a88b78
  Z: 8.0
  valence: 6
  core: 2
  charge: 0.0
  Hubbard U: 1.050000 eV (l=1, scale=False)
  file: /Users/gabrielbirnbaum/dft_learning/DIR/gpaw-setups-0.9.20000/O.PBE.gz
  compensation charges: gauss, rc=0.21, lmax=2
  cutoffs: 1.17(filt), 0.83(core),
  valence states:
                energy  radius
    2s(2.00)   -23.961   0.688
    2p(4.00)    -9.029   0.598
    *s           3.251   0.688
    *p          18.182   0.598
    *d           0.000   0.619

  Using partial waves for O as LCAO basis

Reference energy: -8163.409205

Spin-paired calculation

Convergence criteria:
 Maximum [total energy] change in last 3 cyles: 0.0005 eV / electron
 Maximum integral of absolute [dens]ity change: 0.0001 electrons / valence electron
 Maximum integral of absolute [eigenst]ate change: 4e-08 eV^2 / valence electron
 Maximum number of scf [iter]ations: 333
 (Square brackets indicate name in SCF output, whereas a 'c' in
 the SCF output indicates the quantity has converged.)

Symmetries present (total): 4

  ( 1  0  0)  ( 1  0  0)  (-1  0  0)  (-1  0  0)
  ( 0  1  0)  ( 0 -1  0)  ( 0  1  0)  ( 0 -1  0)
  ( 0  0  1)  ( 0  0  1)  ( 0  0 -1)  ( 0  0 -1)

64 k-points: 4 x 4 x 4 Monkhorst-Pack grid + [1/8,1/8,1/8]
30 k-points in the irreducible part of the Brillouin zone
       k-points in crystal coordinates                weights
   0:     0.00000000    0.00000000    0.00000000          1/64
   1:     0.00000000    0.00000000    0.25000000          2/64
   2:     0.00000000    0.00000000    0.50000000          1/64
   3:     0.00000000    0.25000000    0.00000000          2/64
   4:     0.00000000    0.25000000    0.25000000          4/64
   5:     0.00000000    0.25000000    0.50000000          2/64
   6:     0.00000000    0.50000000    0.00000000          1/64
   7:     0.00000000    0.50000000    0.25000000          2/64
   8:     0.00000000    0.50000000    0.50000000          1/64
   9:     0.25000000    0.00000000   -0.25000000          2/64
          ...
  29:     0.50000000    0.50000000    0.50000000          1/64

Wave functions: Plane wave expansion
  Cutoff energy: 500.000 eV
  Number of coefficients (min, max): 1860, 1910
  Pulay-stress correction: 0.000000 eV/Ang^3 (de/decut=0.000000)
  Using Numpy's FFT
  ScaLapack parameters: grid=1x1, blocksize=None
  Wavefunction extrapolation:
    Improved wavefunction reuse through dual PAW basis 

Occupation numbers: Fermi-Dirac: width=0.1000 eV
 

Eigensolver
   Davidson(niter=2) 

Densities:
  Coarse grid: 30*20*24 grid
  Fine grid: 60*40*48 grid
  Total Charge: 0.000000 

Density mixing:
  Method: separate
  Backend: pulay
  Linear mixing parameter: 0.05
  Mixing with 5 old densities
  Damping of long wave oscillations: 50 

Hamiltonian:
  XC and Coulomb potentials evaluated on a 60*40*48 grid
  Using the PBE Exchange-Correlation functional
  External potential:
    NoExternalPotential
 

XC parameters: PBE with 2 nearest neighbor stencil

Memory estimate:
  Process memory now: 113.67 MiB
  Calculator: 30.30 MiB
    Density: 5.94 MiB
      Arrays: 2.86 MiB
      Localized functions: 1.98 MiB
      Mixer: 1.10 MiB
    Hamiltonian: 1.91 MiB
      Arrays: 1.87 MiB
      XC: 0.00 MiB
      Poisson: 0.00 MiB
      vbar: 0.04 MiB
    Wavefunctions: 22.46 MiB
      Arrays psit_nG: 13.99 MiB
      Eigensolver: 0.65 MiB
      Projections: 0.38 MiB
      Projectors: 6.01 MiB
      PW-descriptor: 1.42 MiB

Total number of cores used: 1

Number of atoms: 4
Number of atomic orbitals: 16
Number of bands in calculation: 16
Number of valence electrons: 24
Bands to converge: occupied

... initialized

Initializing position-dependent things.

Density initialized from atomic densities
Creating initial wave functions:
  16 bands from LCAO basis set

                       
                       
                       
                       
             O         
                       
       O               
          O            
                       
            O          
                       
                       
                       
                       

Positions:
   0 O      1.766737    0.792178   -3.122947    ( 0.0000,  0.0000,  0.0000)
   1 O      0.000000   -0.070820   -0.612542    ( 0.0000,  0.0000,  0.0000)
   2 O      0.000000    3.590005   -3.122947    ( 0.0000,  0.0000,  0.0000)
   3 O      1.766737    2.727007   -0.612542    ( 0.0000,  0.0000,  0.0000)

Unit cell:
           periodic     x           y           z      points  spacing
  1. axis:    yes    0.000000    5.595654    0.000000    30     0.1630
  2. axis:    yes    3.533474    0.000000    0.000000    20     0.1767
  3. axis:    yes    0.000000   -2.076469   -3.735489    24     0.1556

  Lengths:   5.595654   3.533474   4.273828
  Angles:   90.000000 119.068636  90.000000

Effective grid spacing dv^(1/3) = 0.1725

     iter     time        total  log10-change:
                         energy  eigst   dens
iter:   1 09:30:02   -15.092497
iter:   2 09:30:05   -15.099786  -1.32  -1.24
iter:   3 09:30:08   -14.818174  -1.65  -1.27
iter:   4 09:30:11   -14.833210  -2.04  -1.67
iter:   5 09:30:15   -14.822931  -2.52  -1.98
iter:   6 09:30:18   -14.818629  -3.19  -2.30
iter:   7 09:30:21   -14.818545c -4.69  -2.74
iter:   8 09:30:24   -14.817845c -3.93  -2.76
iter:   9 09:30:27   -14.817796c -5.00  -3.16
iter:  10 09:30:30   -14.817787c -6.66  -3.45
iter:  11 09:30:33   -14.817776c -6.33  -3.91
iter:  12 09:30:36   -14.817776c -7.66c -4.10c

Converged after 12 iterations.

Dipole moment: (-0.000000, -0.000000, -0.000000) |e|*Ang

Energy contributions relative to reference atoms: (reference = -8163.409205)

Kinetic:         +8.033467
Potential:      -11.596672
External:        +0.000000
XC:             -11.316253
Entropy (-ST):   -0.310007
Local:           +0.216685
--------------------------
Free energy:    -14.972779
Extrapolated:   -14.817776

Showing only first 2 kpts
 Kpt  Band  Eigenvalues  Occupancy
  0    10     -2.01200    1.98134
  0    11     -1.36010    0.27087
  0    12     -1.29867    0.15627
  0    13     -1.28865    0.14243

  1    10     -1.94738    1.96470
  1    11     -1.49066    0.73263
  1    12     -1.28769    0.14116
  1    13     -1.22181    0.07562


Fermi level: -1.54547

No gap
Timing:                              incl.     excl.
-----------------------------------------------------------
Hamiltonian:                         0.121     0.001   0.0% |
 Atomic:                             0.090     0.002   0.0% |
  XC Correction:                     0.089     0.089   0.2% |
 Calculate atomic Hamiltonians:      0.004     0.004   0.0% |
 Communicate:                        0.000     0.000   0.0% |
 Initialize Hamiltonian:             0.000     0.000   0.0% |
 Poisson:                            0.000     0.000   0.0% |
 XC 3D grid:                         0.026     0.026   0.1% |
LCAO initialization:                 1.362     0.014   0.0% |
 LCAO eigensolver:                   0.158     0.001   0.0% |
  Calculate projections:             0.001     0.001   0.0% |
  DenseAtomicCorrection:             0.003     0.003   0.0% |
  Distribute overlap matrix:         0.000     0.000   0.0% |
  Orbital Layouts:                   0.004     0.004   0.0% |
  Potential matrix:                  0.144     0.144   0.4% |
  Sum over cells:                    0.005     0.005   0.0% |
 LCAO to grid:                       0.992     0.992   2.6% ||
 Set positions (LCAO WFS):           0.199     0.019   0.0% |
  Basic WFS set positions:           0.000     0.000   0.0% |
  Basis functions set positions:     0.000     0.000   0.0% |
  P tci:                             0.084     0.084   0.2% |
  ST tci:                            0.084     0.084   0.2% |
  mktci:                             0.012     0.012   0.0% |
PWDescriptor:                        0.010     0.010   0.0% |
SCF-cycle:                          37.097     0.066   0.2% |
 Davidson:                          32.092     1.845   4.7% |-|
  Apply H:                           7.212     7.140  18.4% |------|
   HMM T:                            0.073     0.073   0.2% |
  Subspace diag:                     7.476     0.021   0.1% |
   calc_h_matrix:                    7.269     0.131   0.3% |
    Apply H:                         7.138     7.064  18.2% |------|
     HMM T:                          0.075     0.075   0.2% |
   diagonalize:                      0.065     0.065   0.2% |
   rotate_psi:                       0.121     0.121   0.3% |
  calc. matrices:                   15.115     0.799   2.1% ||
   Apply H:                         14.317    14.174  36.5% |--------------|
    HMM T:                           0.143     0.143   0.4% |
  diagonalize:                       0.222     0.222   0.6% |
  rotate_psi:                        0.222     0.222   0.6% |
 Density:                            3.337     0.000   0.0% |
  Atomic density matrices:           0.023     0.023   0.1% |
  Mix:                               0.159     0.159   0.4% |
  Multipole moments:                 0.001     0.001   0.0% |
  Pseudo density:                    3.153     3.138   8.1% |--|
   Symmetrize density:               0.015     0.015   0.0% |
 Hamiltonian:                        1.557     0.012   0.0% |
  Atomic:                            1.090     0.030   0.1% |
   XC Correction:                    1.061     1.061   2.7% ||
  Calculate atomic Hamiltonians:     0.081     0.081   0.2% |
  Communicate:                       0.000     0.000   0.0% |
  Poisson:                           0.004     0.004   0.0% |
  XC 3D grid:                        0.370     0.370   1.0% |
 Orthonormalize:                     0.045     0.002   0.0% |
  calc_s_matrix:                     0.010     0.010   0.0% |
  inverse-cholesky:                  0.002     0.002   0.0% |
  projections:                       0.027     0.027   0.1% |
  rotate_psi_s:                      0.005     0.005   0.0% |
Set symmetry:                        0.002     0.002   0.0% |
Other:                               0.269     0.269   0.7% |
-----------------------------------------------------------
Total:                                        38.862 100.0%

Memory usage: 258.63 MiB
Date: Sat Jul 30 09:30:36 2022
