
  ___ ___ ___ _ _ _  
 |   |   |_  | | | | 
 | | | | | . | | | | 
 |__ |  _|___|_____|  22.1.0
 |___|_|             

User:   gabrielbirnbaum@Gabriels-MacBook-Pro.local
Date:   Thu Jul 21 10:59:53 2022
Arch:   x86_64
Pid:    51194
Python: 3.9.13
gpaw:   /Users/gabrielbirnbaum/PycharmProjects/nanolithia/venv/lib/python3.9/site-packages/gpaw
_gpaw:  /Users/gabrielbirnbaum/PycharmProjects/nanolithia/venv/lib/python3.9/site-packages/
        _gpaw.cpython-39-darwin.so
ase:    /Users/gabrielbirnbaum/PycharmProjects/nanolithia/venv/lib/python3.9/site-packages/ase (version 3.22.1)
numpy:  /Users/gabrielbirnbaum/PycharmProjects/nanolithia/venv/lib/python3.9/site-packages/numpy (version 1.23.0)
scipy:  /Users/gabrielbirnbaum/PycharmProjects/nanolithia/venv/lib/python3.9/site-packages/scipy (version 1.8.1)
libxc:  5.2.3
units:  Angstrom and eV
cores: 1
OpenMP: False
OMP_NUM_THREADS: 1

Input parameters:
  convergence: {density: 0.001,
                eigenstates: 0.0001,
                energy: 0.0002}
  kpts: {gamma: True,
         size: (8, 8, 8)}
  mode: {ecut: 500.0,
         name: pw}
  setups: {O: :p,1.05,0}
  spinpol: True
  xc: PBE

System changes: positions, numbers, cell, pbc, initial_charges, initial_magmoms 

Initialize ...

O-setup:
  name: Oxygen
  id: 32ecd46bf208036f09c70b0ec9a88b78
  Z: 8.0
  valence: 6
  core: 2
  charge: 0.0
  Hubbard U: 1.050000 eV (l=1, scale=False)
  file: /Users/gabrielbirnbaum/dft_learning/DIR/gpaw-setups-0.9.20000/O.PBE.gz
  compensation charges: gauss, rc=0.21, lmax=2
  cutoffs: 1.17(filt), 0.83(core),
  valence states:
                energy  radius
    2s(2.00)   -23.961   0.688
    2p(4.00)    -9.029   0.598
    *s           3.251   0.688
    *p          18.182   0.598
    *d           0.000   0.619

  Using partial waves for O as LCAO basis

Reference energy: -8163.409205

Spin-polarized calculation.
Magnetic moment: 0.000000

Convergence criteria:
 Maximum [total energy] change in last 3 cyles: 0.0002 eV / electron
 Maximum integral of absolute [dens]ity change: 0.001 electrons / valence electron
 Maximum integral of absolute [eigenst]ate change: 0.0001 eV^2 / valence electron
 Maximum number of scf [iter]ations: 333
 (Square brackets indicate name in SCF output, whereas a 'c' in
 the SCF output indicates the quantity has converged.)

Symmetries present (total): 4

  ( 1  0  0)  ( 1  0  0)  (-1  0  0)  (-1  0  0)
  ( 0  1  0)  ( 0 -1  0)  ( 0  1  0)  ( 0 -1  0)
  ( 0  0  1)  ( 0  0  1)  ( 0  0 -1)  ( 0  0 -1)

512 k-points: 8 x 8 x 8 Monkhorst-Pack grid + [1/16,1/16,1/16]
170 k-points in the irreducible part of the Brillouin zone
       k-points in crystal coordinates                weights
   0:     0.00000000    0.00000000    0.00000000          1/512
   1:     0.00000000    0.00000000    0.12500000          2/512
   2:     0.00000000    0.00000000    0.25000000          2/512
   3:     0.00000000    0.00000000    0.37500000          2/512
   4:     0.00000000    0.00000000    0.50000000          1/512
   5:     0.00000000    0.12500000    0.00000000          2/512
   6:     0.00000000    0.12500000    0.12500000          4/512
   7:     0.00000000    0.12500000    0.25000000          4/512
   8:     0.00000000    0.12500000    0.37500000          4/512
   9:     0.00000000    0.12500000    0.50000000          2/512
          ...
 169:     0.50000000    0.50000000    0.50000000          1/512

Wave functions: Plane wave expansion
  Cutoff energy: 500.000 eV
  Number of coefficients (min, max): 1852, 1910
  Pulay-stress correction: 0.000000 eV/Ang^3 (de/decut=0.000000)
  Using Numpy's FFT
  ScaLapack parameters: grid=1x1, blocksize=None
  Wavefunction extrapolation:
    Improved wavefunction reuse through dual PAW basis 

Occupation numbers: Fermi-Dirac: width=0.1000 eV
 

Eigensolver
   Davidson(niter=2) 

Densities:
  Coarse grid: 30*20*24 grid
  Fine grid: 60*40*48 grid
  Total Charge: 0.000000 

Density mixing:
  Method: difference
  Backend: pulay
  Linear mixing parameter: 0.05
  Mixing with 5 old densities
  Damping of long wave oscillations: 50 

Hamiltonian:
  XC and Coulomb potentials evaluated on a 60*40*48 grid
  Using the PBE Exchange-Correlation functional
  External potential:
    NoExternalPotential
 

XC parameters: PBE with 2 nearest neighbor stencil

Memory estimate:
  Process memory now: 123.47 MiB
  Calculator: 213.33 MiB
    Density: 7.36 MiB
      Arrays: 3.85 MiB
      Localized functions: 1.98 MiB
      Mixer: 1.54 MiB
    Hamiltonian: 2.90 MiB
      Arrays: 2.86 MiB
      XC: 0.00 MiB
      Poisson: 0.00 MiB
      vbar: 0.04 MiB
    Wavefunctions: 203.07 MiB
      Arrays psit_nG: 158.54 MiB
      Eigensolver: 0.65 MiB
      Projections: 4.32 MiB
      Projectors: 34.05 MiB
      PW-descriptor: 5.50 MiB

Total number of cores used: 1

Number of atoms: 4
Number of atomic orbitals: 16
Number of bands in calculation: 16
Number of valence electrons: 24
Bands to converge: occupied

... initialized

Initializing position-dependent things.

Density initialized from atomic densities
Creating initial wave functions:
  16 bands from LCAO basis set

                       
                       
                       
                       
             O         
                       
       O               
          O            
                       
            O          
                       
                       
                       
                       

Positions:
   0 O      1.766737    0.792178   -3.122947    ( 0.0000,  0.0000,  0.0000)
   1 O      0.000000   -0.070820   -0.612542    ( 0.0000,  0.0000,  0.0000)
   2 O      0.000000    3.590005   -3.122947    ( 0.0000,  0.0000,  0.0000)
   3 O      1.766737    2.727007   -0.612542    ( 0.0000,  0.0000,  0.0000)

Unit cell:
           periodic     x           y           z      points  spacing
  1. axis:    yes    0.000000    5.595654    0.000000    30     0.1630
  2. axis:    yes    3.533474    0.000000    0.000000    20     0.1767
  3. axis:    yes    0.000000   -2.076469   -3.735489    24     0.1556

  Lengths:   5.595654   3.533474   4.273828
  Angles:   90.000000 119.068636  90.000000

Effective grid spacing dv^(1/3) = 0.1725

     iter     time        total  log10-change:  magmom
                         energy  eigst   dens
iter:   1 11:01:35   -15.088849                  +0.0000
iter:   2 11:02:07   -15.096208  -1.32  -1.24    +0.0000
iter:   3 11:02:40   -14.814746  -1.65  -1.27    +0.0000
iter:   4 11:03:14   -14.829808  -2.04  -1.67    +0.0000
iter:   5 11:03:47   -14.819496  -2.52  -1.98    -0.0000
iter:   6 11:04:20   -14.815246  -3.19  -2.30    +0.0000
iter:   7 11:04:54   -14.815152c -4.70c -2.74    -0.0000
iter:   8 11:05:29   -14.814457c -3.92  -2.76    -0.0000
iter:   9 11:06:03   -14.814404c -4.98c -3.15c   -0.0000

Converged after 9 iterations.

Dipole moment: (-0.000000, -0.000000, -0.000000) |e|*Ang

Total magnetic moment: (0.000000, 0.000000, -0.000000)
Local magnetic moments:
   0 O  ( 0.000000,  0.000000, -0.000000)
   1 O  ( 0.000000,  0.000000, -0.000000)
   2 O  ( 0.000000,  0.000000, -0.000000)
   3 O  ( 0.000000,  0.000000, -0.000000)

Energy contributions relative to reference atoms: (reference = -8163.409205)

Kinetic:         +8.080513
Potential:      -11.631599
External:        +0.000000
XC:             -11.331197
Entropy (-ST):   -0.308611
Local:           +0.222184
--------------------------
Free energy:    -14.968709
Extrapolated:   -14.814404

Spin contamination: 0.000000 electrons
Showing only first 2 kpts
                      Up                     Down
 Kpt  Band  Eigenvalues  Occupancy  Eigenvalues  Occupancy
  0    10     -2.00960    0.99070     -2.00960    0.99070
  0    11     -1.35813    0.13635     -1.35813    0.13635
  0    12     -1.29669    0.07868     -1.29669    0.07868
  0    13     -1.28623    0.07142     -1.28623    0.07142

  1    10     -1.99061    0.98878     -1.99061    0.98878
  1    11     -1.34620    0.12289     -1.34620    0.12289
  1    12     -1.33454    0.11087     -1.33454    0.11087
  1    13     -1.26470    0.05840     -1.26470    0.05840


Fermi level: -1.54273

No gap
Timing:                              incl.     excl.
-----------------------------------------------------------
Hamiltonian:                         0.192     0.001   0.0% |
 Atomic:                             0.129     0.003   0.0% |
  XC Correction:                     0.126     0.126   0.0% |
 Calculate atomic Hamiltonians:      0.005     0.005   0.0% |
 Communicate:                        0.000     0.000   0.0% |
 Initialize Hamiltonian:             0.000     0.000   0.0% |
 Poisson:                            0.000     0.000   0.0% |
 XC 3D grid:                         0.056     0.056   0.0% |
LCAO initialization:                70.565     0.013   0.0% |
 LCAO eigensolver:                  59.335     0.014   0.0% |
  Calculate projections:             0.013     0.013   0.0% |
  DenseAtomicCorrection:             0.047     0.047   0.0% |
  Distribute overlap matrix:         0.007     0.007   0.0% |
  Orbital Layouts:                   0.060     0.060   0.0% |
  Potential matrix:                 59.102    59.102  16.0% |-----|
  Sum over cells:                    0.093     0.093   0.0% |
 LCAO to grid:                      10.384    10.384   2.8% ||
 Set positions (LCAO WFS):           0.833     0.081   0.0% |
  Basic WFS set positions:           0.000     0.000   0.0% |
  Basis functions set positions:     0.000     0.000   0.0% |
  P tci:                             0.346     0.346   0.1% |
  ST tci:                            0.392     0.392   0.1% |
  mktci:                             0.013     0.013   0.0% |
PWDescriptor:                        0.057     0.057   0.0% |
SCF-cycle:                         298.361     0.549   0.1% |
 Davidson:                         271.214    15.293   4.1% |-|
  Apply H:                          61.251    60.641  16.4% |------|
   HMM T:                            0.610     0.610   0.2% |
  Subspace diag:                    63.389     0.178   0.0% |
   calc_h_matrix:                   61.676     1.001   0.3% |
    Apply H:                        60.675    60.043  16.2% |-----|
     HMM T:                          0.632     0.632   0.2% |
   diagonalize:                      0.522     0.522   0.1% |
   rotate_psi:                       1.013     1.013   0.3% |
  calc. matrices:                  127.476     6.329   1.7% ||
   Apply H:                        121.146   119.961  32.4% |------------|
    HMM T:                           1.185     1.185   0.3% |
  diagonalize:                       1.946     1.946   0.5% |
  rotate_psi:                        1.859     1.859   0.5% |
 Density:                           24.481     0.000   0.0% |
  Atomic density matrices:           0.137     0.137   0.0% |
  Mix:                               0.145     0.145   0.0% |
  Multipole moments:                 0.001     0.001   0.0% |
  Pseudo density:                   24.199    24.178   6.5% |--|
   Symmetrize density:               0.020     0.020   0.0% |
 Hamiltonian:                        1.663     0.008   0.0% |
  Atomic:                            1.023     0.034   0.0% |
   XC Correction:                    0.990     0.990   0.3% |
  Calculate atomic Hamiltonians:     0.042     0.042   0.0% |
  Communicate:                       0.000     0.000   0.0% |
  Poisson:                           0.003     0.003   0.0% |
  XC 3D grid:                        0.587     0.587   0.2% |
 Orthonormalize:                     0.453     0.019   0.0% |
  calc_s_matrix:                     0.075     0.075   0.0% |
  inverse-cholesky:                  0.022     0.022   0.0% |
  projections:                       0.281     0.281   0.1% |
  rotate_psi_s:                      0.057     0.057   0.0% |
Set symmetry:                        0.009     0.009   0.0% |
Other:                               0.810     0.810   0.2% |
-----------------------------------------------------------
Total:                                       369.994 100.0%

Memory usage: 507.86 MiB
Date: Thu Jul 21 11:06:04 2022
