
  ___ ___ ___ _ _ _  
 |   |   |_  | | | | 
 | | | | | . | | | | 
 |__ |  _|___|_____|  22.1.0
 |___|_|             

User:   gabrielbirnbaum@Gabriels-MacBook-Pro.local
Date:   Tue Jul 26 10:49:47 2022
Arch:   x86_64
Pid:    92584
Python: 3.9.13
gpaw:   /Users/gabrielbirnbaum/PycharmProjects/nanolithia/venv/lib/python3.9/site-packages/gpaw
_gpaw:  /Users/gabrielbirnbaum/PycharmProjects/nanolithia/venv/lib/python3.9/site-packages/
        _gpaw.cpython-39-darwin.so
ase:    /Users/gabrielbirnbaum/PycharmProjects/nanolithia/venv/lib/python3.9/site-packages/ase (version 3.22.1)
numpy:  /Users/gabrielbirnbaum/PycharmProjects/nanolithia/venv/lib/python3.9/site-packages/numpy (version 1.23.0)
scipy:  /Users/gabrielbirnbaum/PycharmProjects/nanolithia/venv/lib/python3.9/site-packages/scipy (version 1.8.1)
libxc:  5.2.3
units:  Angstrom and eV
cores: 1
OpenMP: False
OMP_NUM_THREADS: 1

Input parameters:
  kpts: {gamma: True,
         size: (6, 6, 6)}
  mode: {ecut: 500.0,
         name: pw}
  setups: {O: :p,1.05,0}

System changes: positions, numbers, cell, pbc, initial_charges, initial_magmoms 

Initialize ...

O-setup:
  name: Oxygen
  id: 9b9d51c344dea68c822856295a461509
  Z: 8.0
  valence: 6
  core: 2
  charge: 0.0
  Hubbard U: 1.050000 eV (l=1, scale=False)
  file: /Users/gabrielbirnbaum/dft_learning/DIR/gpaw-setups-0.9.20000/O.LDA.gz
  compensation charges: gauss, rc=0.21, lmax=2
  cutoffs: 1.17(filt), 0.83(core),
  valence states:
                energy  radius
    2s(2.00)   -23.752   0.688
    2p(4.00)    -9.195   0.598
    *s           3.459   0.688
    *p          18.016   0.598
    *d           0.000   0.619

  Using partial waves for O as LCAO basis

Reference energy: -8111.632273

Spin-paired calculation

Convergence criteria:
 Maximum [total energy] change in last 3 cyles: 0.0005 eV / electron
 Maximum integral of absolute [dens]ity change: 0.0001 electrons / valence electron
 Maximum integral of absolute [eigenst]ate change: 4e-08 eV^2 / valence electron
 Maximum number of scf [iter]ations: 333
 (Square brackets indicate name in SCF output, whereas a 'c' in
 the SCF output indicates the quantity has converged.)

Symmetries present (total): 4

  ( 1  0  0)  ( 1  0  0)  (-1  0  0)  (-1  0  0)
  ( 0  1  0)  ( 0 -1  0)  ( 0  1  0)  ( 0 -1  0)
  ( 0  0  1)  ( 0  0  1)  ( 0  0 -1)  ( 0  0 -1)

216 k-points: 6 x 6 x 6 Monkhorst-Pack grid + [1/12,1/12,1/12]
80 k-points in the irreducible part of the Brillouin zone
       k-points in crystal coordinates                weights
   0:     0.00000000    0.00000000    0.00000000          1/216
   1:     0.00000000    0.00000000    0.16666667          2/216
   2:     0.00000000    0.00000000    0.33333333          2/216
   3:     0.00000000    0.00000000    0.50000000          1/216
   4:     0.00000000    0.16666667    0.00000000          2/216
   5:     0.00000000    0.16666667    0.16666667          4/216
   6:     0.00000000    0.16666667    0.33333333          4/216
   7:     0.00000000    0.16666667    0.50000000          2/216
   8:     0.00000000    0.33333333    0.00000000          2/216
   9:     0.00000000    0.33333333    0.16666667          4/216
          ...
  79:     0.50000000    0.50000000    0.50000000          1/216

Wave functions: Plane wave expansion
  Cutoff energy: 500.000 eV
  Number of coefficients (min, max): 1854, 1910
  Pulay-stress correction: 0.000000 eV/Ang^3 (de/decut=0.000000)
  Using Numpy's FFT
  ScaLapack parameters: grid=1x1, blocksize=None
  Wavefunction extrapolation:
    Improved wavefunction reuse through dual PAW basis 

Occupation numbers: Fermi-Dirac: width=0.1000 eV
 

Eigensolver
   Davidson(niter=2) 

Densities:
  Coarse grid: 30*20*24 grid
  Fine grid: 60*40*48 grid
  Total Charge: 0.000000 

Density mixing:
  Method: separate
  Backend: pulay
  Linear mixing parameter: 0.05
  Mixing with 5 old densities
  Damping of long wave oscillations: 50 

Hamiltonian:
  XC and Coulomb potentials evaluated on a 60*40*48 grid
  Using the LDA Exchange-Correlation functional
  External potential:
    NoExternalPotential
 

Memory estimate:
  Process memory now: 1598.15 MiB
  Calculator: 65.73 MiB
    Density: 5.94 MiB
      Arrays: 2.86 MiB
      Localized functions: 1.98 MiB
      Mixer: 1.10 MiB
    Hamiltonian: 1.91 MiB
      Arrays: 1.87 MiB
      XC: 0.00 MiB
      Poisson: 0.00 MiB
      vbar: 0.04 MiB
    Wavefunctions: 57.88 MiB
      Arrays psit_nG: 37.30 MiB
      Eigensolver: 0.65 MiB
      Projections: 1.02 MiB
      Projectors: 16.03 MiB
      PW-descriptor: 2.88 MiB

Total number of cores used: 1

Number of atoms: 4
Number of atomic orbitals: 16
Number of bands in calculation: 16
Number of valence electrons: 24
Bands to converge: occupied

... initialized

Initializing position-dependent things.

Density initialized from atomic densities
Creating initial wave functions:
  16 bands from LCAO basis set

                       
                       
                       
                       
             O         
                       
       O               
          O            
                       
            O          
                       
                       
                       
                       

Positions:
   0 O      1.766737    0.792178   -3.122947    ( 0.0000,  0.0000,  0.0000)
   1 O      0.000000   -0.070820   -0.612542    ( 0.0000,  0.0000,  0.0000)
   2 O      0.000000    3.590005   -3.122947    ( 0.0000,  0.0000,  0.0000)
   3 O      1.766737    2.727007   -0.612542    ( 0.0000,  0.0000,  0.0000)

Unit cell:
           periodic     x           y           z      points  spacing
  1. axis:    yes    0.000000    5.595654    0.000000    30     0.1630
  2. axis:    yes    3.533474    0.000000    0.000000    20     0.1767
  3. axis:    yes    0.000000   -2.076469   -3.735489    24     0.1556

  Lengths:   5.595654   3.533474   4.273828
  Angles:   90.000000 119.068636  90.000000

Effective grid spacing dv^(1/3) = 0.1725

     iter     time        total  log10-change:
                         energy  eigst   dens
iter:   1 10:50:01   -16.964756
iter:   2 10:50:14   -16.976032  -1.26  -1.25
iter:   3 10:50:29   -16.673581  -1.69  -1.28
iter:   4 10:50:41   -16.672441  -1.99  -1.65
iter:   5 10:50:54   -16.656943  -2.42  -1.98
iter:   6 10:51:07   -16.652279  -3.20  -2.33
iter:   7 10:51:21   -16.651695c -4.57  -2.70
iter:   8 10:51:35   -16.651412c -3.84  -2.81
iter:   9 10:51:47   -16.651208c -4.72  -3.05
iter:  10 10:52:00   -16.651172c -6.26  -3.47
iter:  11 10:52:14   -16.651177c -6.27  -3.98
iter:  12 10:52:27   -16.651182c -6.69  -3.97
iter:  13 10:52:36   -16.651186c -8.05c -4.21c

Converged after 13 iterations.

Dipole moment: (-0.000000, -0.000000, -0.000000) |e|*Ang

Energy contributions relative to reference atoms: (reference = -8111.632273)

Kinetic:         +5.564253
Potential:       -9.701982
External:        +0.000000
XC:             -12.563617
Entropy (-ST):   -0.299679
Local:           +0.199999
--------------------------
Free energy:    -16.801025
Extrapolated:   -16.651186

Showing only first 2 kpts
 Kpt  Band  Eigenvalues  Occupancy
  0    10     -2.33772    1.98482
  0    11     -1.65760    0.25405
  0    12     -1.59479    0.14410
  0    13     -1.58455    0.13099

  1    10     -2.30754    1.97953
  1    11     -1.68905    0.33234
  1    12     -1.61875    0.17961
  1    13     -1.54963    0.09420


Fermi level: -1.85035

No gap
Timing:                              incl.     excl.
-----------------------------------------------------------
Hamiltonian:                         0.060     0.004   0.0% |
 Atomic:                             0.032     0.002   0.0% |
  XC Correction:                     0.030     0.030   0.0% |
 Calculate atomic Hamiltonians:      0.006     0.006   0.0% |
 Communicate:                        0.000     0.000   0.0% |
 Initialize Hamiltonian:             0.000     0.000   0.0% |
 Poisson:                            0.000     0.000   0.0% |
 XC 3D grid:                         0.017     0.017   0.0% |
LCAO initialization:                 4.456     0.068   0.0% |
 LCAO eigensolver:                   0.245     0.002   0.0% |
  Calculate projections:             0.002     0.002   0.0% |
  DenseAtomicCorrection:             0.008     0.008   0.0% |
  Distribute overlap matrix:         0.001     0.001   0.0% |
  Orbital Layouts:                   0.012     0.012   0.0% |
  Potential matrix:                  0.205     0.205   0.1% |
  Sum over cells:                    0.014     0.014   0.0% |
 LCAO to grid:                       3.620     3.620   2.1% ||
 Set positions (LCAO WFS):           0.524     0.055   0.0% |
  Basic WFS set positions:           0.000     0.000   0.0% |
  Basis functions set positions:     0.000     0.000   0.0% |
  P tci:                             0.219     0.219   0.1% |
  ST tci:                            0.233     0.233   0.1% |
  mktci:                             0.015     0.015   0.0% |
PWDescriptor:                        0.033     0.033   0.0% |
SCF-cycle:                         164.304     0.234   0.1% |
 Davidson:                         148.007     7.881   4.7% |-|
  Apply H:                          31.287    30.954  18.3% |------|
   HMM T:                            0.332     0.332   0.2% |
  Subspace diag:                    36.171     0.093   0.1% |
   calc_h_matrix:                   35.277     0.743   0.4% |
    Apply H:                        34.534    34.200  20.2% |-------|
     HMM T:                          0.334     0.334   0.2% |
   diagonalize:                      0.271     0.271   0.2% |
   rotate_psi:                       0.531     0.531   0.3% |
  calc. matrices:                   70.562     5.866   3.5% ||
   Apply H:                         64.695    64.044  37.8% |--------------|
    HMM T:                           0.652     0.652   0.4% |
  diagonalize:                       1.157     1.157   0.7% |
  rotate_psi:                        0.949     0.949   0.6% |
 Density:                           14.811     0.000   0.0% |
  Atomic density matrices:           0.088     0.088   0.1% |
  Mix:                               0.273     0.273   0.2% |
  Multipole moments:                 0.002     0.002   0.0% |
  Pseudo density:                   14.449    14.424   8.5% |--|
   Symmetrize density:               0.025     0.025   0.0% |
 Hamiltonian:                        1.035     0.019   0.0% |
  Atomic:                            0.617     0.046   0.0% |
   XC Correction:                    0.571     0.571   0.3% |
  Calculate atomic Hamiltonians:     0.125     0.125   0.1% |
  Communicate:                       0.000     0.000   0.0% |
  Poisson:                           0.006     0.006   0.0% |
  XC 3D grid:                        0.267     0.267   0.2% |
 Orthonormalize:                     0.217     0.006   0.0% |
  calc_s_matrix:                     0.109     0.109   0.1% |
  inverse-cholesky:                  0.006     0.006   0.0% |
  projections:                       0.080     0.080   0.0% |
  rotate_psi_s:                      0.016     0.016   0.0% |
Set symmetry:                        0.006     0.006   0.0% |
Other:                               0.556     0.556   0.3% |
-----------------------------------------------------------
Total:                                       169.415 100.0%

Memory usage: 1.56 GiB
Date: Tue Jul 26 10:52:36 2022
