
  ___ ___ ___ _ _ _  
 |   |   |_  | | | | 
 | | | | | . | | | | 
 |__ |  _|___|_____|  22.1.0
 |___|_|             

User:   gabrielbirnbaum@Gabriels-MacBook-Pro.local
Date:   Thu Jul 21 14:58:35 2022
Arch:   x86_64
Pid:    80141
Python: 3.9.13
gpaw:   /Users/gabrielbirnbaum/PycharmProjects/nanolithia/venv/lib/python3.9/site-packages/gpaw
_gpaw:  /Users/gabrielbirnbaum/PycharmProjects/nanolithia/venv/lib/python3.9/site-packages/
        _gpaw.cpython-39-darwin.so
ase:    /Users/gabrielbirnbaum/PycharmProjects/nanolithia/venv/lib/python3.9/site-packages/ase (version 3.22.1)
numpy:  /Users/gabrielbirnbaum/PycharmProjects/nanolithia/venv/lib/python3.9/site-packages/numpy (version 1.23.0)
scipy:  /Users/gabrielbirnbaum/PycharmProjects/nanolithia/venv/lib/python3.9/site-packages/scipy (version 1.8.1)
libxc:  5.2.3
units:  Angstrom and eV
cores: 1
OpenMP: False
OMP_NUM_THREADS: 1

Input parameters:
  kpts: {gamma: True,
         size: (8, 8, 8)}
  mode: {ecut: 500.0,
         name: pw}
  xc: PBE

System changes: positions, numbers, cell, pbc, initial_charges, initial_magmoms 

Initialize ...

O-setup:
  name: Oxygen
  id: 32ecd46bf208036f09c70b0ec9a88b78
  Z: 8.0
  valence: 6
  core: 2
  charge: 0.0
  file: /Users/gabrielbirnbaum/dft_learning/DIR/gpaw-setups-0.9.20000/O.PBE.gz
  compensation charges: gauss, rc=0.21, lmax=2
  cutoffs: 1.17(filt), 0.83(core),
  valence states:
                energy  radius
    2s(2.00)   -23.961   0.688
    2p(4.00)    -9.029   0.598
    *s           3.251   0.688
    *p          18.182   0.598
    *d           0.000   0.619

  Using partial waves for O as LCAO basis

Reference energy: -8163.409205

Spin-paired calculation

Convergence criteria:
 Maximum [total energy] change in last 3 cyles: 0.0005 eV / electron
 Maximum integral of absolute [dens]ity change: 0.0001 electrons / valence electron
 Maximum integral of absolute [eigenst]ate change: 4e-08 eV^2 / valence electron
 Maximum number of scf [iter]ations: 333
 (Square brackets indicate name in SCF output, whereas a 'c' in
 the SCF output indicates the quantity has converged.)

Symmetries present (total): 4

  ( 1  0  0)  ( 1  0  0)  (-1  0  0)  (-1  0  0)
  ( 0  1  0)  ( 0 -1  0)  ( 0  1  0)  ( 0 -1  0)
  ( 0  0  1)  ( 0  0  1)  ( 0  0 -1)  ( 0  0 -1)

512 k-points: 8 x 8 x 8 Monkhorst-Pack grid + [1/16,1/16,1/16]
170 k-points in the irreducible part of the Brillouin zone
       k-points in crystal coordinates                weights
   0:     0.00000000    0.00000000    0.00000000          1/512
   1:     0.00000000    0.00000000    0.12500000          2/512
   2:     0.00000000    0.00000000    0.25000000          2/512
   3:     0.00000000    0.00000000    0.37500000          2/512
   4:     0.00000000    0.00000000    0.50000000          1/512
   5:     0.00000000    0.12500000    0.00000000          2/512
   6:     0.00000000    0.12500000    0.12500000          4/512
   7:     0.00000000    0.12500000    0.25000000          4/512
   8:     0.00000000    0.12500000    0.37500000          4/512
   9:     0.00000000    0.12500000    0.50000000          2/512
          ...
 169:     0.50000000    0.50000000    0.50000000          1/512

Wave functions: Plane wave expansion
  Cutoff energy: 500.000 eV
  Number of coefficients (min, max): 1852, 1910
  Pulay-stress correction: 0.000000 eV/Ang^3 (de/decut=0.000000)
  Using Numpy's FFT
  ScaLapack parameters: grid=1x1, blocksize=None
  Wavefunction extrapolation:
    Improved wavefunction reuse through dual PAW basis 

Occupation numbers: Fermi-Dirac: width=0.1000 eV
 

Eigensolver
   Davidson(niter=2) 

Densities:
  Coarse grid: 30*20*24 grid
  Fine grid: 60*40*48 grid
  Total Charge: 0.000000 

Density mixing:
  Method: separate
  Backend: pulay
  Linear mixing parameter: 0.05
  Mixing with 5 old densities
  Damping of long wave oscillations: 50 

Hamiltonian:
  XC and Coulomb potentials evaluated on a 60*40*48 grid
  Using the PBE Exchange-Correlation functional
  External potential:
    NoExternalPotential
 

XC parameters: PBE with 2 nearest neighbor stencil

Memory estimate:
  Process memory now: 123.35 MiB
  Calculator: 129.48 MiB
    Density: 5.94 MiB
      Arrays: 2.86 MiB
      Localized functions: 1.98 MiB
      Mixer: 1.10 MiB
    Hamiltonian: 1.91 MiB
      Arrays: 1.87 MiB
      XC: 0.00 MiB
      Poisson: 0.00 MiB
      vbar: 0.04 MiB
    Wavefunctions: 121.64 MiB
      Arrays psit_nG: 79.27 MiB
      Eigensolver: 0.65 MiB
      Projections: 2.16 MiB
      Projectors: 34.05 MiB
      PW-descriptor: 5.50 MiB

Total number of cores used: 1

Number of atoms: 4
Number of atomic orbitals: 16
Number of bands in calculation: 16
Number of valence electrons: 24
Bands to converge: occupied

... initialized

Initializing position-dependent things.

Density initialized from atomic densities
Creating initial wave functions:
  16 bands from LCAO basis set

                       
                       
                       
                       
             O         
                       
       O               
          O            
                       
            O          
                       
                       
                       
                       

Positions:
   0 O      1.766737    0.792178   -3.122947    ( 0.0000,  0.0000,  0.0000)
   1 O      0.000000   -0.070820   -0.612542    ( 0.0000,  0.0000,  0.0000)
   2 O      0.000000    3.590005   -3.122947    ( 0.0000,  0.0000,  0.0000)
   3 O      1.766737    2.727007   -0.612542    ( 0.0000,  0.0000,  0.0000)

Unit cell:
           periodic     x           y           z      points  spacing
  1. axis:    yes    0.000000    5.595654    0.000000    30     0.1630
  2. axis:    yes    3.533474    0.000000    0.000000    20     0.1767
  3. axis:    yes    0.000000   -2.076469   -3.735489    24     0.1556

  Lengths:   5.595654   3.533474   4.273828
  Angles:   90.000000 119.068636  90.000000

Effective grid spacing dv^(1/3) = 0.1725

     iter     time        total  log10-change:
                         energy  eigst   dens
iter:   1 14:59:00   -18.033595
iter:   2 14:59:17   -18.036136  -1.33  -1.23
iter:   3 14:59:35   -17.732355  -1.64  -1.26
iter:   4 14:59:52   -17.742608  -2.06  -1.67
iter:   5 15:00:10   -17.735268c -2.54  -1.97
iter:   6 15:00:28   -17.729716  -3.14  -2.22
iter:   7 15:00:46   -17.729770c -4.68  -2.81
iter:   8 15:01:04   -17.729261c -4.60  -2.83
iter:   9 15:01:22   -17.729264c -6.38  -3.27
iter:  10 15:01:40   -17.729208c -5.70  -3.36
iter:  11 15:01:58   -17.729208c -6.87  -4.22c
iter:  12 15:02:17   -17.729209c -8.34c -4.32c

Converged after 12 iterations.

Dipole moment: (-0.000000, -0.000000, -0.000000) |e|*Ang

Energy contributions relative to reference atoms: (reference = -8163.409205)

Kinetic:         +9.334405
Potential:      -12.681708
External:        +0.000000
XC:             -14.441502
Entropy (-ST):   -0.310035
Local:           +0.214613
--------------------------
Free energy:    -17.884227
Extrapolated:   -17.729209

Showing only first 2 kpts
 Kpt  Band  Eigenvalues  Occupancy
  0    10     -2.04375    1.98090
  0    11     -1.39609    0.27525
  0    12     -1.33515    0.15969
  0    13     -1.32448    0.14470

  1    10     -2.02468    1.97693
  1    11     -1.38434    0.24854
  1    12     -1.37262    0.22414
  1    13     -1.30305    0.11844


Fermi level: -1.57960

No gap
Timing:                              incl.     excl.
-----------------------------------------------------------
Hamiltonian:                         0.121     0.001   0.0% |
 Atomic:                             0.088     0.001   0.0% |
  XC Correction:                     0.087     0.087   0.0% |
 Calculate atomic Hamiltonians:      0.005     0.005   0.0% |
 Communicate:                        0.000     0.000   0.0% |
 Initialize Hamiltonian:             0.000     0.000   0.0% |
 Poisson:                            0.000     0.000   0.0% |
 XC 3D grid:                         0.026     0.026   0.0% |
LCAO initialization:                 7.084     0.016   0.0% |
 LCAO eigensolver:                   0.242     0.004   0.0% |
  Calculate projections:             0.006     0.006   0.0% |
  DenseAtomicCorrection:             0.016     0.016   0.0% |
  Distribute overlap matrix:         0.002     0.002   0.0% |
  Orbital Layouts:                   0.025     0.025   0.0% |
  Potential matrix:                  0.160     0.160   0.1% |
  Sum over cells:                    0.029     0.029   0.0% |
 LCAO to grid:                       6.017     6.017   2.7% ||
 Set positions (LCAO WFS):           0.808     0.083   0.0% |
  Basic WFS set positions:           0.000     0.000   0.0% |
  Basis functions set positions:     0.000     0.000   0.0% |
  P tci:                             0.345     0.345   0.2% |
  ST tci:                            0.367     0.367   0.2% |
  mktci:                             0.013     0.013   0.0% |
PWDescriptor:                        0.055     0.055   0.0% |
SCF-cycle:                         213.381     0.400   0.2% |
 Davidson:                         192.608    11.008   5.0% |-|
  Apply H:                          42.615    42.174  19.1% |-------|
   HMM T:                            0.441     0.441   0.2% |
  Subspace diag:                    45.469     0.127   0.1% |
   calc_h_matrix:                   44.243     0.782   0.4% |
    Apply H:                        43.460    43.004  19.4% |-------|
     HMM T:                          0.456     0.456   0.2% |
   diagonalize:                      0.379     0.379   0.2% |
   rotate_psi:                       0.721     0.721   0.3% |
  calc. matrices:                   90.752     4.940   2.2% ||
   Apply H:                         85.812    84.951  38.4% |--------------|
    HMM T:                           0.862     0.862   0.4% |
  diagonalize:                       1.462     1.462   0.7% |
  rotate_psi:                        1.302     1.302   0.6% |
 Density:                           18.592     0.000   0.0% |
  Atomic density matrices:           0.108     0.108   0.0% |
  Mix:                               0.156     0.156   0.1% |
  Multipole moments:                 0.001     0.001   0.0% |
  Pseudo density:                   18.327    18.311   8.3% |--|
   Symmetrize density:               0.016     0.016   0.0% |
 Hamiltonian:                        1.513     0.010   0.0% |
  Atomic:                            1.086     0.008   0.0% |
   XC Correction:                    1.078     1.078   0.5% |
  Calculate atomic Hamiltonians:     0.061     0.061   0.0% |
  Communicate:                       0.000     0.000   0.0% |
  Poisson:                           0.004     0.004   0.0% |
  XC 3D grid:                        0.352     0.352   0.2% |
 Orthonormalize:                     0.267     0.010   0.0% |
  calc_s_matrix:                     0.055     0.055   0.0% |
  inverse-cholesky:                  0.012     0.012   0.0% |
  projections:                       0.158     0.158   0.1% |
  rotate_psi_s:                      0.031     0.031   0.0% |
Set symmetry:                        0.009     0.009   0.0% |
Other:                               0.671     0.671   0.3% |
-----------------------------------------------------------
Total:                                       221.320 100.0%

Memory usage: 390.93 MiB
Date: Thu Jul 21 15:02:17 2022
