
  ___ ___ ___ _ _ _  
 |   |   |_  | | | | 
 | | | | | . | | | | 
 |__ |  _|___|_____|  22.1.0
 |___|_|             

User:   gabrielbirnbaum@Gabriels-MacBook-Pro.local
Date:   Tue Jul 26 11:00:55 2022
Arch:   x86_64
Pid:    92584
Python: 3.9.13
gpaw:   /Users/gabrielbirnbaum/PycharmProjects/nanolithia/venv/lib/python3.9/site-packages/gpaw
_gpaw:  /Users/gabrielbirnbaum/PycharmProjects/nanolithia/venv/lib/python3.9/site-packages/
        _gpaw.cpython-39-darwin.so
ase:    /Users/gabrielbirnbaum/PycharmProjects/nanolithia/venv/lib/python3.9/site-packages/ase (version 3.22.1)
numpy:  /Users/gabrielbirnbaum/PycharmProjects/nanolithia/venv/lib/python3.9/site-packages/numpy (version 1.23.0)
scipy:  /Users/gabrielbirnbaum/PycharmProjects/nanolithia/venv/lib/python3.9/site-packages/scipy (version 1.8.1)
libxc:  5.2.3
units:  Angstrom and eV
cores: 1
OpenMP: False
OMP_NUM_THREADS: 1

Input parameters:
  kpts: {gamma: True,
         size: (10, 10, 10)}
  mode: {ecut: 500.0,
         name: pw}
  setups: {O: :p,1.05,0}

System changes: positions, numbers, cell, pbc, initial_charges, initial_magmoms 

Initialize ...

O-setup:
  name: Oxygen
  id: 9b9d51c344dea68c822856295a461509
  Z: 8.0
  valence: 6
  core: 2
  charge: 0.0
  Hubbard U: 1.050000 eV (l=1, scale=False)
  file: /Users/gabrielbirnbaum/dft_learning/DIR/gpaw-setups-0.9.20000/O.LDA.gz
  compensation charges: gauss, rc=0.21, lmax=2
  cutoffs: 1.17(filt), 0.83(core),
  valence states:
                energy  radius
    2s(2.00)   -23.752   0.688
    2p(4.00)    -9.195   0.598
    *s           3.459   0.688
    *p          18.016   0.598
    *d           0.000   0.619

  Using partial waves for O as LCAO basis

Reference energy: -8111.632273

Spin-paired calculation

Convergence criteria:
 Maximum [total energy] change in last 3 cyles: 0.0005 eV / electron
 Maximum integral of absolute [dens]ity change: 0.0001 electrons / valence electron
 Maximum integral of absolute [eigenst]ate change: 4e-08 eV^2 / valence electron
 Maximum number of scf [iter]ations: 333
 (Square brackets indicate name in SCF output, whereas a 'c' in
 the SCF output indicates the quantity has converged.)

Symmetries present (total): 4

  ( 1  0  0)  ( 1  0  0)  (-1  0  0)  (-1  0  0)
  ( 0  1  0)  ( 0 -1  0)  ( 0  1  0)  ( 0 -1  0)
  ( 0  0  1)  ( 0  0  1)  ( 0  0 -1)  ( 0  0 -1)

1000 k-points: 10 x 10 x 10 Monkhorst-Pack grid + [1/20,1/20,1/20]
312 k-points in the irreducible part of the Brillouin zone
       k-points in crystal coordinates                weights
   0:     0.00000000    0.00000000    0.00000000          1/1000
   1:     0.00000000    0.00000000    0.10000000          2/1000
   2:     0.00000000    0.00000000    0.20000000          2/1000
   3:     0.00000000    0.00000000    0.30000000          2/1000
   4:     0.00000000    0.00000000    0.40000000          2/1000
   5:     0.00000000    0.00000000    0.50000000          1/1000
   6:     0.00000000    0.10000000    0.00000000          2/1000
   7:     0.00000000    0.10000000    0.10000000          4/1000
   8:     0.00000000    0.10000000    0.20000000          4/1000
   9:     0.00000000    0.10000000    0.30000000          4/1000
          ...
 311:     0.50000000    0.50000000    0.50000000          1/1000

Wave functions: Plane wave expansion
  Cutoff energy: 500.000 eV
  Number of coefficients (min, max): 1848, 1910
  Pulay-stress correction: 0.000000 eV/Ang^3 (de/decut=0.000000)
  Using Numpy's FFT
  ScaLapack parameters: grid=1x1, blocksize=None
  Wavefunction extrapolation:
    Improved wavefunction reuse through dual PAW basis 

Occupation numbers: Fermi-Dirac: width=0.1000 eV
 

Eigensolver
   Davidson(niter=2) 

Densities:
  Coarse grid: 30*20*24 grid
  Fine grid: 60*40*48 grid
  Total Charge: 0.000000 

Density mixing:
  Method: separate
  Backend: pulay
  Linear mixing parameter: 0.05
  Mixing with 5 old densities
  Damping of long wave oscillations: 50 

Hamiltonian:
  XC and Coulomb potentials evaluated on a 60*40*48 grid
  Using the LDA Exchange-Correlation functional
  External potential:
    NoExternalPotential
 

Memory estimate:
  Process memory now: 1598.15 MiB
  Calculator: 230.07 MiB
    Density: 5.94 MiB
      Arrays: 2.86 MiB
      Localized functions: 1.98 MiB
      Mixer: 1.10 MiB
    Hamiltonian: 1.91 MiB
      Arrays: 1.87 MiB
      XC: 0.00 MiB
      Poisson: 0.00 MiB
      vbar: 0.04 MiB
    Wavefunctions: 222.22 MiB
      Arrays psit_nG: 145.49 MiB
      Eigensolver: 0.65 MiB
      Projections: 3.96 MiB
      Projectors: 62.48 MiB
      PW-descriptor: 9.64 MiB

Total number of cores used: 1

Number of atoms: 4
Number of atomic orbitals: 16
Number of bands in calculation: 16
Number of valence electrons: 24
Bands to converge: occupied

... initialized

Initializing position-dependent things.

Density initialized from atomic densities
Creating initial wave functions:
  16 bands from LCAO basis set

                       
                       
                       
                       
             O         
                       
       O               
          O            
                       
            O          
                       
                       
                       
                       

Positions:
   0 O      1.766737    0.792178   -3.122947    ( 0.0000,  0.0000,  0.0000)
   1 O      0.000000   -0.070820   -0.612542    ( 0.0000,  0.0000,  0.0000)
   2 O      0.000000    3.590005   -3.122947    ( 0.0000,  0.0000,  0.0000)
   3 O      1.766737    2.727007   -0.612542    ( 0.0000,  0.0000,  0.0000)

Unit cell:
           periodic     x           y           z      points  spacing
  1. axis:    yes    0.000000    5.595654    0.000000    30     0.1630
  2. axis:    yes    3.533474    0.000000    0.000000    20     0.1767
  3. axis:    yes    0.000000   -2.076469   -3.735489    24     0.1556

  Lengths:   5.595654   3.533474   4.273828
  Angles:   90.000000 119.068636  90.000000

Effective grid spacing dv^(1/3) = 0.1725

     iter     time        total  log10-change:
                         energy  eigst   dens
iter:   1 11:01:39   -16.961701
iter:   2 11:02:14   -16.972999  -1.25  -1.25
iter:   3 11:02:49   -16.670595  -1.69  -1.28
iter:   4 11:03:24   -16.669417  -1.99  -1.65
iter:   5 11:03:58   -16.653807  -2.43  -1.98
iter:   6 11:04:32   -16.649267  -3.20  -2.33
iter:   7 11:05:07   -16.648638c -4.60  -2.69
iter:   8 11:05:42   -16.648389c -3.85  -2.82
iter:   9 11:06:16   -16.648176c -4.69  -3.04
iter:  10 11:06:51   -16.648140c -6.23  -3.47
iter:  11 11:07:26   -16.648146c -6.24  -3.97
iter:  12 11:08:00   -16.648151c -6.65  -3.96
iter:  13 11:08:36   -16.648153c -8.26c -4.20c

Converged after 13 iterations.

Dipole moment: (-0.000000, -0.000000, 0.000000) |e|*Ang

Energy contributions relative to reference atoms: (reference = -8111.632273)

Kinetic:         +5.544738
Potential:       -9.680187
External:        +0.000000
XC:             -12.562153
Entropy (-ST):   -0.299863
Local:           +0.199382
--------------------------
Free energy:    -16.798084
Extrapolated:   -16.648153

Showing only first 2 kpts
 Kpt  Band  Eigenvalues  Occupancy
  0    10     -2.33783    1.98487
  0    11     -1.65786    0.25501
  0    12     -1.59506    0.14468
  0    13     -1.58469    0.13137

  1    10     -2.32167    1.98224
  1    11     -1.64564    0.22904
  1    12     -1.62627    0.19259
  1    13     -1.57055    0.11504


Fermi level: -1.85018

No gap
Timing:                              incl.     excl.
-----------------------------------------------------------
Hamiltonian:                         0.052     0.001   0.0% |
 Atomic:                             0.030     0.002   0.0% |
  XC Correction:                     0.027     0.027   0.0% |
 Calculate atomic Hamiltonians:      0.006     0.006   0.0% |
 Communicate:                        0.000     0.000   0.0% |
 Initialize Hamiltonian:             0.000     0.000   0.0% |
 Poisson:                            0.000     0.000   0.0% |
 XC 3D grid:                         0.014     0.014   0.0% |
LCAO initialization:                14.230     0.021   0.0% |
 LCAO eigensolver:                   0.336     0.007   0.0% |
  Calculate projections:             0.010     0.010   0.0% |
  DenseAtomicCorrection:             0.029     0.029   0.0% |
  Distribute overlap matrix:         0.004     0.004   0.0% |
  Orbital Layouts:                   0.048     0.048   0.0% |
  Potential matrix:                  0.187     0.187   0.0% |
  Sum over cells:                    0.051     0.051   0.0% |
 LCAO to grid:                      12.143    12.143   2.6% ||
 Set positions (LCAO WFS):           1.729     0.167   0.0% |
  Basic WFS set positions:           0.000     0.000   0.0% |
  Basis functions set positions:     0.000     0.000   0.0% |
  P tci:                             0.746     0.746   0.2% |
  ST tci:                            0.800     0.800   0.2% |
  mktci:                             0.015     0.015   0.0% |
PWDescriptor:                        0.182     0.182   0.0% |
SCF-cycle:                         445.129     0.738   0.2% |
 Davidson:                         400.983    23.538   5.1% |-|
  Apply H:                          89.503    88.523  19.2% |-------|
   HMM T:                            0.980     0.980   0.2% |
  Subspace diag:                    92.611     0.287   0.1% |
   calc_h_matrix:                   89.895     1.864   0.4% |
    Apply H:                        88.031    87.051  18.9% |-------|
     HMM T:                          0.980     0.980   0.2% |
   diagonalize:                      0.836     0.836   0.2% |
   rotate_psi:                       1.592     1.592   0.3% |
  calc. matrices:                  189.422    13.519   2.9% ||
   Apply H:                        175.903   173.988  37.7% |--------------|
    HMM T:                           1.915     1.915   0.4% |
  diagonalize:                       3.155     3.155   0.7% |
  rotate_psi:                        2.754     2.754   0.6% |
 Density:                           42.061     0.000   0.0% |
  Atomic density matrices:           0.252     0.252   0.1% |
  Mix:                               0.206     0.206   0.0% |
  Multipole moments:                 0.001     0.001   0.0% |
  Pseudo density:                   41.601    41.582   9.0% |---|
   Symmetrize density:               0.020     0.020   0.0% |
 Hamiltonian:                        0.800     0.020   0.0% |
  Atomic:                            0.493     0.039   0.0% |
   XC Correction:                    0.455     0.455   0.1% |
  Calculate atomic Hamiltonians:     0.087     0.087   0.0% |
  Communicate:                       0.000     0.000   0.0% |
  Poisson:                           0.005     0.005   0.0% |
  XC 3D grid:                        0.194     0.194   0.0% |
 Orthonormalize:                     0.547     0.019   0.0% |
  calc_s_matrix:                     0.176     0.176   0.0% |
  inverse-cholesky:                  0.022     0.022   0.0% |
  projections:                       0.275     0.275   0.1% |
  rotate_psi_s:                      0.054     0.054   0.0% |
Set symmetry:                        0.021     0.021   0.0% |
Other:                               1.337     1.337   0.3% |
-----------------------------------------------------------
Total:                                       460.950 100.0%

Memory usage: 1.56 GiB
Date: Tue Jul 26 11:08:36 2022
