
  ___ ___ ___ _ _ _  
 |   |   |_  | | | | 
 | | | | | . | | | | 
 |__ |  _|___|_____|  22.1.0
 |___|_|             

User:   gabrielbirnbaum@Gabriels-MacBook-Pro.local
Date:   Sat Jul 16 17:23:20 2022
Arch:   x86_64
Pid:    64177
Python: 3.9.13
gpaw:   /Users/gabrielbirnbaum/PycharmProjects/nanolithia/venv/lib/python3.9/site-packages/gpaw
_gpaw:  /Users/gabrielbirnbaum/PycharmProjects/nanolithia/venv/lib/python3.9/site-packages/
        _gpaw.cpython-39-darwin.so
ase:    /Users/gabrielbirnbaum/PycharmProjects/nanolithia/venv/lib/python3.9/site-packages/ase (version 3.22.1)
numpy:  /Users/gabrielbirnbaum/PycharmProjects/nanolithia/venv/lib/python3.9/site-packages/numpy (version 1.23.0)
scipy:  /Users/gabrielbirnbaum/PycharmProjects/nanolithia/venv/lib/python3.9/site-packages/scipy (version 1.8.1)
libxc:  5.2.3
units:  Angstrom and eV
cores: 1
OpenMP: False
OMP_NUM_THREADS: 1

Input parameters:
  kpts: [8 8 8]
  mode: {ecut: 650.0,
         name: pw}
  nbands: 20
  xc: PBE

System changes: positions, numbers, cell, pbc, initial_charges, initial_magmoms 

Initialize ...

Li-setup:
  name: Lithium
  id: 830b4218f175192f93f959cfc0aad614
  Z: 3.0
  valence: 1
  core: 2
  charge: 0.0
  file: /Users/gabrielbirnbaum/dft_learning/DIR/gpaw-setups-0.9.20000/Li.PBE.gz
  compensation charges: gauss, rc=0.33, lmax=2
  cutoffs: 1.91(filt), 2.55(core),
  valence states:
                energy  radius
    2s(1.00)    -2.874   1.058
    2p(0.00)    -1.090   1.058
    *s          24.337   1.058

  Using partial waves for Li as LCAO basis

O-setup:
  name: Oxygen
  id: 32ecd46bf208036f09c70b0ec9a88b78
  Z: 8.0
  valence: 6
  core: 2
  charge: 0.0
  file: /Users/gabrielbirnbaum/dft_learning/DIR/gpaw-setups-0.9.20000/O.PBE.gz
  compensation charges: gauss, rc=0.21, lmax=2
  cutoffs: 1.17(filt), 0.83(core),
  valence states:
                energy  radius
    2s(2.00)   -23.961   0.688
    2p(4.00)    -9.029   0.598
    *s           3.251   0.688
    *p          18.182   0.598
    *d           0.000   0.619

  Using partial waves for O as LCAO basis

Reference energy: -9785.711766

Spin-paired calculation

Convergence criteria:
 Maximum [total energy] change in last 3 cyles: 0.0005 eV / electron
 Maximum integral of absolute [dens]ity change: 0.0001 electrons / valence electron
 Maximum integral of absolute [eigenst]ate change: 4e-08 eV^2 / valence electron
 Maximum number of scf [iter]ations: 333
 (Square brackets indicate name in SCF output, whereas a 'c' in
 the SCF output indicates the quantity has converged.)

Symmetries present (total): 48

  ( 1  0  0)  ( 1  0  0)  ( 1  0  0)  ( 1  0  0)  ( 1  0  0)  ( 1  0  0)
  ( 0  1  0)  ( 0  1  0)  ( 0  0  1)  ( 0  0  1)  ( 0  0 -1)  ( 0  0 -1)
  ( 0  0  1)  ( 0  0 -1)  ( 0  1  0)  ( 0 -1  0)  ( 0  1  0)  ( 0 -1  0)

  ( 1  0  0)  ( 1  0  0)  ( 0  1  0)  ( 0  1  0)  ( 0  1  0)  ( 0  1  0)
  ( 0 -1  0)  ( 0 -1  0)  ( 1  0  0)  ( 1  0  0)  ( 0  0  1)  ( 0  0  1)
  ( 0  0  1)  ( 0  0 -1)  ( 0  0  1)  ( 0  0 -1)  ( 1  0  0)  (-1  0  0)

  ( 0  1  0)  ( 0  1  0)  ( 0  1  0)  ( 0  1  0)  ( 0  0  1)  ( 0  0  1)
  ( 0  0 -1)  ( 0  0 -1)  (-1  0  0)  (-1  0  0)  ( 1  0  0)  ( 1  0  0)
  ( 1  0  0)  (-1  0  0)  ( 0  0  1)  ( 0  0 -1)  ( 0  1  0)  ( 0 -1  0)

  ( 0  0  1)  ( 0  0  1)  ( 0  0  1)  ( 0  0  1)  ( 0  0  1)  ( 0  0  1)
  ( 0  1  0)  ( 0  1  0)  ( 0 -1  0)  ( 0 -1  0)  (-1  0  0)  (-1  0  0)
  ( 1  0  0)  (-1  0  0)  ( 1  0  0)  (-1  0  0)  ( 0  1  0)  ( 0 -1  0)

  ( 0  0 -1)  ( 0  0 -1)  ( 0  0 -1)  ( 0  0 -1)  ( 0  0 -1)  ( 0  0 -1)
  ( 1  0  0)  ( 1  0  0)  ( 0  1  0)  ( 0  1  0)  ( 0 -1  0)  ( 0 -1  0)
  ( 0  1  0)  ( 0 -1  0)  ( 1  0  0)  (-1  0  0)  ( 1  0  0)  (-1  0  0)

  ( 0  0 -1)  ( 0  0 -1)  ( 0 -1  0)  ( 0 -1  0)  ( 0 -1  0)  ( 0 -1  0)
  (-1  0  0)  (-1  0  0)  ( 1  0  0)  ( 1  0  0)  ( 0  0  1)  ( 0  0  1)
  ( 0  1  0)  ( 0 -1  0)  ( 0  0  1)  ( 0  0 -1)  ( 1  0  0)  (-1  0  0)

  ( 0 -1  0)  ( 0 -1  0)  ( 0 -1  0)  ( 0 -1  0)  (-1  0  0)  (-1  0  0)
  ( 0  0 -1)  ( 0  0 -1)  (-1  0  0)  (-1  0  0)  ( 0  1  0)  ( 0  1  0)
  ( 1  0  0)  (-1  0  0)  ( 0  0  1)  ( 0  0 -1)  ( 0  0  1)  ( 0  0 -1)

  (-1  0  0)  (-1  0  0)  (-1  0  0)  (-1  0  0)  (-1  0  0)  (-1  0  0)
  ( 0  0  1)  ( 0  0  1)  ( 0  0 -1)  ( 0  0 -1)  ( 0 -1  0)  ( 0 -1  0)
  ( 0  1  0)  ( 0 -1  0)  ( 0  1  0)  ( 0 -1  0)  ( 0  0  1)  ( 0  0 -1)

512 k-points: 8 x 8 x 8 Monkhorst-Pack grid
20 k-points in the irreducible part of the Brillouin zone
       k-points in crystal coordinates                weights
   0:     0.06250000    0.06250000    0.06250000          8/512
   1:     0.18750000    0.06250000    0.06250000         24/512
   2:     0.18750000    0.18750000    0.06250000         24/512
   3:     0.18750000    0.18750000    0.18750000          8/512
   4:     0.31250000    0.06250000    0.06250000         24/512
   5:     0.31250000    0.18750000    0.06250000         48/512
   6:     0.31250000    0.18750000    0.18750000         24/512
   7:     0.31250000    0.31250000    0.06250000         24/512
   8:     0.31250000    0.31250000    0.18750000         24/512
   9:     0.31250000    0.31250000    0.31250000          8/512
          ...
  19:     0.43750000    0.43750000    0.43750000          8/512

Wave functions: Plane wave expansion
  Cutoff energy: 650.000 eV
  Number of coefficients (min, max): 3797, 3827
  Pulay-stress correction: 0.000000 eV/Ang^3 (de/decut=0.000000)
  Using Numpy's FFT
  ScaLapack parameters: grid=1x1, blocksize=None
  Wavefunction extrapolation:
    Improved wavefunction reuse through dual PAW basis 

Occupation numbers: Fermi-Dirac: width=0.1000 eV
 

Eigensolver
   Davidson(niter=2) 

Densities:
  Coarse grid: 28*28*28 grid
  Fine grid: 56*56*56 grid
  Total Charge: 0.000000 

Density mixing:
  Method: separate
  Backend: pulay
  Linear mixing parameter: 0.05
  Mixing with 5 old densities
  Damping of long wave oscillations: 50 

Hamiltonian:
  XC and Coulomb potentials evaluated on a 56*56*56 grid
  Using the PBE Exchange-Correlation functional
  External potential:
    NoExternalPotential
 

XC parameters: PBE with 2 nearest neighbor stencil

Memory estimate:
  Process memory now: 961.62 MiB
  Calculator: 51.39 MiB
    Density: 11.10 MiB
      Arrays: 4.35 MiB
      Localized functions: 5.07 MiB
      Mixer: 1.67 MiB
    Hamiltonian: 2.97 MiB
      Arrays: 2.85 MiB
      XC: 0.00 MiB
      Poisson: 0.00 MiB
      vbar: 0.12 MiB
    Wavefunctions: 37.32 MiB
      Arrays psit_nG: 23.36 MiB
      Eigensolver: 1.52 MiB
      Projections: 0.56 MiB
      Projectors: 9.87 MiB
      PW-descriptor: 2.01 MiB

Total number of cores used: 1

Number of atoms: 12
Number of atomic orbitals: 48
Number of bands in calculation: 20
Number of valence electrons: 32
Bands to converge: occupied

... initialized

Initializing position-dependent things.

Density initialized from atomic densities
Creating initial wave functions:
  20 bands from LCAO basis set

    .----------.  
   /|          |  
  / | Li   Li  |  
 *  |          |  
 | OLi    Li   |  
 |  | Li   Li  |  
 |  .--O-------.  
 | /Li  O Li  /   
 |/          /    
 O----------*     

Positions:
   0 Li     1.164710    1.164710    3.494131    ( 0.0000,  0.0000,  0.0000)
   1 Li     1.164710    3.494131    3.494131    ( 0.0000,  0.0000,  0.0000)
   2 Li     1.164710    3.494131    1.164710    ( 0.0000,  0.0000,  0.0000)
   3 Li     1.164710    1.164710    1.164710    ( 0.0000,  0.0000,  0.0000)
   4 Li     3.494131    1.164710    1.164710    ( 0.0000,  0.0000,  0.0000)
   5 Li     3.494131    3.494131    1.164710    ( 0.0000,  0.0000,  0.0000)
   6 Li     3.494131    3.494131    3.494131    ( 0.0000,  0.0000,  0.0000)
   7 Li     3.494131    1.164710    3.494131    ( 0.0000,  0.0000,  0.0000)
   8 O      0.000000    0.000000    0.000000    ( 0.0000,  0.0000,  0.0000)
   9 O      0.000000    2.329421    2.329421    ( 0.0000,  0.0000,  0.0000)
  10 O      2.329421    0.000000    2.329421    ( 0.0000,  0.0000,  0.0000)
  11 O      2.329421    2.329421    0.000000    ( 0.0000,  0.0000,  0.0000)

Unit cell:
           periodic     x           y           z      points  spacing
  1. axis:    yes    4.658842    0.000000    0.000000    28     0.1664
  2. axis:    yes    0.000000    4.658842    0.000000    28     0.1664
  3. axis:    yes    0.000000    0.000000    4.658842    28     0.1664

  Lengths:   4.658842   4.658842   4.658842
  Angles:   90.000000  90.000000  90.000000

Effective grid spacing dv^(1/3) = 0.1664

     iter     time        total  log10-change:
                         energy  eigst   dens
iter:   1 17:23:29   -60.849937
iter:   2 17:23:33   -59.948705  -1.58  -0.78
iter:   3 17:23:38   -57.891449  -1.06  -0.83
iter:   4 17:23:42   -58.171001  -0.85  -1.03
iter:   5 17:23:46   -57.620661  -1.30  -1.24
iter:   6 17:23:50   -57.620191  -2.81  -1.67
iter:   7 17:23:54   -57.709835  -1.48  -1.76
iter:   8 17:23:58   -57.746130  -2.66  -1.74
                                                                                                                                                                                                                                                                                                                                                                                                                                                                                                                                                                                                                                                                                                                                                                                                                                                                                                                                                                                                                                                                                                                                                                                                                                                                                                                                                                                                                                                                                                                                                                                                                                                                                    Timing:                              incl.     excl.
-----------------------------------------------------------
Hamiltonian:                         0.253     0.001   0.0% |
 Atomic:                             0.196     0.001   0.0% |
  XC Correction:                     0.195     0.195   0.2% |
 Calculate atomic Hamiltonians:      0.020     0.020   0.0% |
 Communicate:                        0.000     0.000   0.0% |
 Initialize Hamiltonian:             0.000     0.000   0.0% |
 Poisson:                            0.000     0.000   0.0% |
 XC 3D grid:                         0.034     0.034   0.0% |
LCAO initialization:                 4.723     0.030   0.0% |
 LCAO eigensolver:                   1.149     0.001   0.0% |
  Calculate projections:             0.002     0.002   0.0% |
  DenseAtomicCorrection:             0.006     0.006   0.0% |
  Distribute overlap matrix:         0.001     0.001   0.0% |
  Orbital Layouts:                   0.016     0.016   0.0% |
  Potential matrix:                  1.103     1.103   1.1% |
  Sum over cells:                    0.020     0.020   0.0% |
 LCAO to grid:                       2.519     2.519   2.5% ||
 Set positions (LCAO WFS):           1.025     0.167   0.2% |
  Basic WFS set positions:           0.011     0.011   0.0% |
  Basis functions set positions:     0.000     0.000   0.0% |
  P tci:                             0.413     0.413   0.4% |
  ST tci:                            0.394     0.394   0.4% |
  mktci:                             0.039     0.039   0.0% |
PWDescriptor:                        0.014     0.014   0.0% |
SCF-cycle:                          94.999     0.051   0.1% |
 Davidson:                          78.719     8.458   8.4% |--|
  Apply H:                          17.221    16.960  16.9% |------|
   HMM T:                            0.261     0.261   0.3% |
  Subspace diag:                    17.368     0.032   0.0% |
   calc_h_matrix:                   16.853     0.376   0.4% |
    Apply H:                        16.477    16.258  16.2% |-----|
     HMM T:                          0.219     0.219   0.2% |
   diagonalize:                      0.104     0.104   0.1% |
   rotate_psi:                       0.379     0.379   0.4% |
  calc. matrices:                   34.528     2.183   2.2% ||
   Apply H:                         32.345    31.867  31.7% |------------|
    HMM T:                           0.477     0.477   0.5% |
  diagonalize:                       0.431     0.431   0.4% |
  rotate_psi:                        0.713     0.713   0.7% |
 Density:                            9.879     0.000   0.0% |
  Atomic density matrices:           0.158     0.158   0.2% |
  Mix:                               0.958     0.958   1.0% |
  Multipole moments:                 0.005     0.005   0.0% |
  Pseudo density:                    8.757     8.223   8.2% |--|
   Symmetrize density:               0.534     0.534   0.5% |
 Hamiltonian:                        6.261     0.040   0.0% |
  Atomic:                            4.597     0.025   0.0% |
   XC Correction:                    4.572     4.572   4.5% |-|
  Calculate atomic Hamiltonians:     0.597     0.597   0.6% |
  Communicate:                       0.000     0.000   0.0% |
  Poisson:                           0.014     0.014   0.0% |
  XC 3D grid:                        1.013     1.013   1.0% |
 Orthonormalize:                     0.090     0.001   0.0% |
  calc_s_matrix:                     0.017     0.017   0.0% |
  inverse-cholesky:                  0.001     0.001   0.0% |
  projections:                       0.063     0.063   0.1% |
  rotate_psi_s:                      0.007     0.007   0.0% |
Set symmetry:                        0.032     0.032   0.0% |
Other:                               0.521     0.521   0.5% |
-----------------------------------------------------------
Total:                                       100.541 100.0%

Memory usage: 960.09 MiB
Date: Sat Jul 16 17:23:20 2022
