
  ___ ___ ___ _ _ _  
 |   |   |_  | | | | 
 | | | | | . | | | | 
 |__ |  _|___|_____|  22.1.0
 |___|_|             

User:   gabrielbirnbaum@Gabriels-MacBook-Pro.local
Date:   Wed Jul 20 14:00:04 2022
Arch:   x86_64
Pid:    30164
Python: 3.9.13
gpaw:   /Users/gabrielbirnbaum/PycharmProjects/nanolithia/venv/lib/python3.9/site-packages/gpaw
_gpaw:  /Users/gabrielbirnbaum/PycharmProjects/nanolithia/venv/lib/python3.9/site-packages/
        _gpaw.cpython-39-darwin.so
ase:    /Users/gabrielbirnbaum/PycharmProjects/nanolithia/venv/lib/python3.9/site-packages/ase (version 3.22.1)
numpy:  /Users/gabrielbirnbaum/PycharmProjects/nanolithia/venv/lib/python3.9/site-packages/numpy (version 1.23.0)
scipy:  /Users/gabrielbirnbaum/PycharmProjects/nanolithia/venv/lib/python3.9/site-packages/scipy (version 1.8.1)
libxc:  5.2.3
units:  Angstrom and eV
cores: 1
OpenMP: False
OMP_NUM_THREADS: 1

Input parameters:
  convergence: {density: 0.001,
                eigenstates: 0.0001,
                energy: 0.0002}
  kpts: {gamma: True,
         size: (8, 8, 8)}
  mode: {ecut: 500.0,
         name: pw}
  spinpol: True
  xc: PBE

System changes: positions, numbers, cell, pbc, initial_charges, initial_magmoms 

Initialize ...

Li-setup:
  name: Lithium
  id: 830b4218f175192f93f959cfc0aad614
  Z: 3.0
  valence: 1
  core: 2
  charge: 0.0
  file: /Users/gabrielbirnbaum/dft_learning/DIR/gpaw-setups-0.9.20000/Li.PBE.gz
  compensation charges: gauss, rc=0.33, lmax=2
  cutoffs: 1.91(filt), 2.55(core),
  valence states:
                energy  radius
    2s(1.00)    -2.874   1.058
    2p(0.00)    -1.090   1.058
    *s          24.337   1.058

  Using partial waves for Li as LCAO basis

O-setup:
  name: Oxygen
  id: 32ecd46bf208036f09c70b0ec9a88b78
  Z: 8.0
  valence: 6
  core: 2
  charge: 0.0
  file: /Users/gabrielbirnbaum/dft_learning/DIR/gpaw-setups-0.9.20000/O.PBE.gz
  compensation charges: gauss, rc=0.21, lmax=2
  cutoffs: 1.17(filt), 0.83(core),
  valence states:
                energy  radius
    2s(2.00)   -23.961   0.688
    2p(4.00)    -9.029   0.598
    *s           3.251   0.688
    *p          18.182   0.598
    *d           0.000   0.619

  Using partial waves for O as LCAO basis

Reference energy: -9380.136126

Spin-polarized calculation.
Magnetic moment: 0.000000

Convergence criteria:
 Maximum [total energy] change in last 3 cyles: 0.0002 eV / electron
 Maximum integral of absolute [dens]ity change: 0.001 electrons / valence electron
 Maximum integral of absolute [eigenst]ate change: 0.0001 eV^2 / valence electron
 Maximum number of scf [iter]ations: 333
 (Square brackets indicate name in SCF output, whereas a 'c' in
 the SCF output indicates the quantity has converged.)

Symmetries present (total): 4

  ( 1  0  0)  ( 1  0  0)  ( 0  0 -1)  ( 0  0 -1)
  ( 0  1  0)  ( 0 -1  0)  ( 0  1  0)  ( 0 -1  0)
  ( 0  0  1)  ( 0  0  1)  (-1  0  0)  (-1  0  0)

512 k-points: 8 x 8 x 8 Monkhorst-Pack grid + [1/16,1/16,1/16]
105 k-points in the irreducible part of the Brillouin zone
       k-points in crystal coordinates                weights
   0:     0.00000000    0.00000000    0.00000000          1/512
   1:     0.00000000    0.12500000    0.00000000          2/512
   2:     0.00000000    0.25000000    0.00000000          2/512
   3:     0.00000000    0.37500000    0.00000000          2/512
   4:     0.00000000    0.50000000    0.00000000          1/512
   5:     0.12500000    0.00000000   -0.12500000          2/512
   6:     0.12500000    0.00000000    0.00000000          4/512
   7:     0.12500000    0.00000000    0.12500000          2/512
   8:     0.12500000    0.12500000   -0.12500000          4/512
   9:     0.12500000    0.12500000    0.00000000          8/512
          ...
 104:     0.50000000    0.50000000    0.50000000          1/512

Wave functions: Plane wave expansion
  Cutoff energy: 500.000 eV
  Number of coefficients (min, max): 2512, 2612
  Pulay-stress correction: 0.000000 eV/Ang^3 (de/decut=0.000000)
  Using Numpy's FFT
  ScaLapack parameters: grid=1x1, blocksize=None
  Wavefunction extrapolation:
    Improved wavefunction reuse through dual PAW basis 

Occupation numbers: Fermi-Dirac: width=0.1000 eV
 

Eigensolver
   Davidson(niter=2) 

Densities:
  Coarse grid: 25*25*25 grid
  Fine grid: 50*50*50 grid
  Total Charge: 0.000000 

Density mixing:
  Method: difference
  Backend: pulay
  Linear mixing parameter: 0.05
  Mixing with 5 old densities
  Damping of long wave oscillations: 50 

Hamiltonian:
  XC and Coulomb potentials evaluated on a 50*50*50 grid
  Using the PBE Exchange-Correlation functional
  External potential:
    NoExternalPotential
 

XC parameters: PBE with 2 nearest neighbor stencil

Memory estimate:
  Process memory now: 635.77 MiB
  Calculator: 243.19 MiB
    Density: 9.23 MiB
      Arrays: 4.17 MiB
      Localized functions: 3.39 MiB
      Mixer: 1.67 MiB
    Hamiltonian: 3.18 MiB
      Arrays: 3.10 MiB
      XC: 0.00 MiB
      Poisson: 0.00 MiB
      vbar: 0.08 MiB
    Wavefunctions: 230.77 MiB
      Arrays psit_nG: 184.13 MiB
      Eigensolver: 1.15 MiB
      Projections: 5.78 MiB
      Projectors: 34.93 MiB
      PW-descriptor: 4.78 MiB

Total number of cores used: 1

Number of atoms: 10
Number of atomic orbitals: 40
Number of bands in calculation: 22
Number of valence electrons: 30
Bands to converge: occupied

... initialized

Initializing position-dependent things.

Density initialized from atomic densities
Creating initial wave functions:
  22 bands from LCAO basis set

    .----------.  
   /|          |  
  / |      Li  |  
 *  |          |  
 | O|     Li   |  
 |  | Li   Li  |  
 |  .--O-------.  
 | /Li  O Li  /   
 |/          /    
 O----------*     

Positions:
   0 Li     1.164710    3.494131    1.164710    ( 0.0000,  0.0000,  0.0000)
   1 Li     1.164710    1.164710    1.164710    ( 0.0000,  0.0000,  0.0000)
   2 Li     3.494131    1.164710    1.164710    ( 0.0000,  0.0000,  0.0000)
   3 Li     3.494131    3.494131    1.164710    ( 0.0000,  0.0000,  0.0000)
   4 Li     3.494131    3.494131    3.494131    ( 0.0000,  0.0000,  0.0000)
   5 Li     3.494131    1.164710    3.494131    ( 0.0000,  0.0000,  0.0000)
   6 O      0.000000    0.000000    0.000000    ( 0.0000,  0.0000,  0.0000)
   7 O      0.000000    2.329421    2.329421    ( 0.0000,  0.0000,  0.0000)
   8 O      2.329421    0.000000    2.329421    ( 0.0000,  0.0000,  0.0000)
   9 O      2.329421    2.329421    0.000000    ( 0.0000,  0.0000,  0.0000)

Unit cell:
           periodic     x           y           z      points  spacing
  1. axis:    yes    4.658842    0.000000    0.000000    25     0.1864
  2. axis:    yes    0.000000    4.658842    0.000000    25     0.1864
  3. axis:    yes    0.000000    0.000000    4.658842    25     0.1864

  Lengths:   4.658842   4.658842   4.658842
  Angles:   90.000000  90.000000  90.000000

Effective grid spacing dv^(1/3) = 0.1864

     iter     time        total  log10-change:  magmom
                         energy  eigst   dens
iter:   1 14:03:25   -45.159780                  +0.0000
iter:   2 14:03:58   -44.778277  -1.70  -0.88    +0.0000
iter:   3 14:04:33   -43.686147  -1.46  -0.92    +0.0000
iter:   4 14:05:08   -43.609911  -1.51  -1.12    +0.0000
iter:   5 14:05:44   -43.622630  -1.51  -1.33    +0.0000
iter:   6 14:06:17   -43.632360  -2.95  -1.77    +0.0000
iter:   7 14:06:51   -43.645565  -3.42  -1.71    -0.0000
iter:   8 14:07:28   -43.574813  -2.48  -1.72    +0.0000
iter:   9 14:08:04   -43.575361  -4.16c -2.48    +0.0000
iter:  10 14:08:41   -43.575090c -4.62c -2.50    +0.0000
iter:  11 14:09:17   -43.574959c -4.24c -2.61    +0.0000
iter:  12 14:09:50   -43.575071c -4.46c -3.01c   +0.0000

Converged after 12 iterations.

Dipole moment: (1.246064, 0.000000, -1.246064) |e|*Ang

Total magnetic moment: (0.000000, 0.000000, 0.000000)
Local magnetic moments:
   0 Li ( 0.000000,  0.000000,  0.000000)
   1 Li ( 0.000000,  0.000000,  0.000000)
   2 Li ( 0.000000,  0.000000, -0.000000)
   3 Li ( 0.000000,  0.000000, -0.000000)
   4 Li ( 0.000000,  0.000000,  0.000000)
   5 Li ( 0.000000,  0.000000,  0.000000)
   6 O  ( 0.000000,  0.000000, -0.000000)
   7 O  ( 0.000000,  0.000000,  0.000000)
   8 O  ( 0.000000,  0.000000, -0.000000)
   9 O  ( 0.000000,  0.000000,  0.000000)

Energy contributions relative to reference atoms: (reference = -9380.136126)

Kinetic:        +37.205157
Potential:      -33.825442
External:        +0.000000
XC:             -46.945938
Entropy (-ST):   -0.310166
Local:           +0.146236
--------------------------
Free energy:    -43.730154
Extrapolated:   -43.575071

Spin contamination: 0.000000 electrons
Showing only first 2 kpts
                      Up                     Down
 Kpt  Band  Eigenvalues  Occupancy  Eigenvalues  Occupancy
  0    13     -0.19387    0.13980     -0.19387    0.13980
  0    14     -0.17884    0.12268     -0.17884    0.12268
  0    15     -0.17884    0.12268     -0.17884    0.12268
  0    16      5.46352    0.00000      5.46352    0.00000

  1    13     -0.28246    0.28271     -0.28246    0.28271
  1    14     -0.20883    0.15877     -0.20883    0.15877
  1    15     -0.20882    0.15877     -0.20882    0.15877
  1    16      5.60940    0.00000      5.60940    0.00000


Fermi level: -0.37557

No gap
Timing:                              incl.     excl.
-----------------------------------------------------------
Hamiltonian:                         0.373     0.002   0.0% |
 Atomic:                             0.284     0.001   0.0% |
  XC Correction:                     0.283     0.283   0.0% |
 Calculate atomic Hamiltonians:      0.015     0.015   0.0% |
 Communicate:                        0.000     0.000   0.0% |
 Initialize Hamiltonian:             0.000     0.000   0.0% |
 Poisson:                            0.000     0.000   0.0% |
 XC 3D grid:                         0.070     0.070   0.0% |
LCAO initialization:               166.313     0.037   0.0% |
 LCAO eigensolver:                 138.620     0.010   0.0% |
  Calculate projections:             0.018     0.018   0.0% |
  DenseAtomicCorrection:             0.049     0.049   0.0% |
  Distribute overlap matrix:         0.006     0.006   0.0% |
  Orbital Layouts:                   0.138     0.138   0.0% |
  Potential matrix:                138.232   138.232  23.6% |--------|
  Sum over cells:                    0.167     0.167   0.0% |
 LCAO to grid:                      25.092    25.092   4.3% |-|
 Set positions (LCAO WFS):           2.564     0.345   0.1% |
  Basic WFS set positions:           0.001     0.001   0.0% |
  Basis functions set positions:     0.000     0.000   0.0% |
  P tci:                             1.163     1.163   0.2% |
  ST tci:                            1.025     1.025   0.2% |
  mktci:                             0.030     0.030   0.0% |
PWDescriptor:                        0.039     0.039   0.0% |
SCF-cycle:                         418.165     1.535   0.3% |
 Davidson:                         377.102    36.857   6.3% |--|
  Apply H:                          80.828    79.211  13.5% |----|
   HMM T:                            1.618     1.618   0.3% |
  Subspace diag:                    84.663     0.186   0.0% |
   calc_h_matrix:                   81.847     1.882   0.3% |
    Apply H:                        79.965    78.981  13.5% |----|
     HMM T:                          0.984     0.984   0.2% |
   diagonalize:                      0.670     0.670   0.1% |
   rotate_psi:                       1.961     1.961   0.3% |
  calc. matrices:                  168.029    10.724   1.8% ||
   Apply H:                        157.306   153.164  26.1% |---------|
    HMM T:                           4.142     4.142   0.7% |
  diagonalize:                       3.090     3.090   0.5% |
  rotate_psi:                        3.634     3.634   0.6% |
 Density:                           34.266     0.000   0.0% |
  Atomic density matrices:           0.329     0.329   0.1% |
  Mix:                               0.463     0.463   0.1% |
  Multipole moments:                 0.002     0.002   0.0% |
  Pseudo density:                   33.471    33.438   5.7% |-|
   Symmetrize density:               0.033     0.033   0.0% |
 Hamiltonian:                        4.420     0.016   0.0% |
  Atomic:                            3.352     0.011   0.0% |
   XC Correction:                    3.342     3.342   0.6% |
  Calculate atomic Hamiltonians:     0.195     0.195   0.0% |
  Communicate:                       0.000     0.000   0.0% |
  Poisson:                           0.005     0.005   0.0% |
  XC 3D grid:                        0.852     0.852   0.1% |
 Orthonormalize:                     0.842     0.017   0.0% |
  calc_s_matrix:                     0.204     0.204   0.0% |
  inverse-cholesky:                  0.019     0.019   0.0% |
  projections:                       0.517     0.517   0.1% |
  rotate_psi_s:                      0.085     0.085   0.0% |
Set symmetry:                        0.012     0.012   0.0% |
Other:                               1.480     1.480   0.3% |
-----------------------------------------------------------
Total:                                       586.381 100.0%

Memory usage: 785.21 MiB
Date: Wed Jul 20 14:09:51 2022
