
  ___ ___ ___ _ _ _  
 |   |   |_  | | | | 
 | | | | | . | | | | 
 |__ |  _|___|_____|  22.1.0
 |___|_|             

User:   gabrielbirnbaum@Gabriels-MacBook-Pro.local
Date:   Wed Jul 20 13:53:30 2022
Arch:   x86_64
Pid:    30164
Python: 3.9.13
gpaw:   /Users/gabrielbirnbaum/PycharmProjects/nanolithia/venv/lib/python3.9/site-packages/gpaw
_gpaw:  /Users/gabrielbirnbaum/PycharmProjects/nanolithia/venv/lib/python3.9/site-packages/
        _gpaw.cpython-39-darwin.so
ase:    /Users/gabrielbirnbaum/PycharmProjects/nanolithia/venv/lib/python3.9/site-packages/ase (version 3.22.1)
numpy:  /Users/gabrielbirnbaum/PycharmProjects/nanolithia/venv/lib/python3.9/site-packages/numpy (version 1.23.0)
scipy:  /Users/gabrielbirnbaum/PycharmProjects/nanolithia/venv/lib/python3.9/site-packages/scipy (version 1.8.1)
libxc:  5.2.3
units:  Angstrom and eV
cores: 1
OpenMP: False
OMP_NUM_THREADS: 1

Input parameters:
  convergence: {density: 0.001,
                eigenstates: 0.0001,
                energy: 0.0002}
  kpts: {gamma: True,
         size: (8, 8, 8)}
  mode: {ecut: 500.0,
         name: pw}
  spinpol: True
  xc: PBE

System changes: positions, numbers, cell, pbc, initial_charges, initial_magmoms 

Initialize ...

Li-setup:
  name: Lithium
  id: 830b4218f175192f93f959cfc0aad614
  Z: 3.0
  valence: 1
  core: 2
  charge: 0.0
  file: /Users/gabrielbirnbaum/dft_learning/DIR/gpaw-setups-0.9.20000/Li.PBE.gz
  compensation charges: gauss, rc=0.33, lmax=2
  cutoffs: 1.91(filt), 2.55(core),
  valence states:
                energy  radius
    2s(1.00)    -2.874   1.058
    2p(0.00)    -1.090   1.058
    *s          24.337   1.058

  Using partial waves for Li as LCAO basis

O-setup:
  name: Oxygen
  id: 32ecd46bf208036f09c70b0ec9a88b78
  Z: 8.0
  valence: 6
  core: 2
  charge: 0.0
  file: /Users/gabrielbirnbaum/dft_learning/DIR/gpaw-setups-0.9.20000/O.PBE.gz
  compensation charges: gauss, rc=0.21, lmax=2
  cutoffs: 1.17(filt), 0.83(core),
  valence states:
                energy  radius
    2s(2.00)   -23.961   0.688
    2p(4.00)    -9.029   0.598
    *s           3.251   0.688
    *p          18.182   0.598
    *d           0.000   0.619

  Using partial waves for O as LCAO basis

Reference energy: -9582.923946

Spin-polarized calculation.
Magnetic moment: 0.000000

Convergence criteria:
 Maximum [total energy] change in last 3 cyles: 0.0002 eV / electron
 Maximum integral of absolute [dens]ity change: 0.001 electrons / valence electron
 Maximum integral of absolute [eigenst]ate change: 0.0001 eV^2 / valence electron
 Maximum number of scf [iter]ations: 333
 (Square brackets indicate name in SCF output, whereas a 'c' in
 the SCF output indicates the quantity has converged.)

Symmetries present (total): 6

  ( 1  0  0)  ( 1  0  0)  ( 0  1  0)  ( 0  1  0)  ( 0  0 -1)  ( 0  0 -1)
  ( 0  1  0)  ( 0  0 -1)  ( 1  0  0)  ( 0  0 -1)  ( 1  0  0)  ( 0  1  0)
  ( 0  0  1)  ( 0 -1  0)  ( 0  0  1)  (-1  0  0)  ( 0 -1  0)  (-1  0  0)

512 k-points: 8 x 8 x 8 Monkhorst-Pack grid + [1/16,1/16,1/16]
65 k-points in the irreducible part of the Brillouin zone
       k-points in crystal coordinates                weights
   0:     0.00000000    0.00000000    0.00000000          1/512
   1:     0.12500000    0.00000000    0.00000000          6/512
   2:     0.12500000    0.00000000    0.12500000          6/512
   3:     0.12500000    0.12500000   -0.12500000          2/512
   4:     0.12500000    0.12500000    0.00000000          6/512
   5:     0.12500000    0.12500000    0.12500000          6/512
   6:     0.25000000   -0.12500000    0.12500000          6/512
   7:     0.25000000    0.00000000    0.00000000          6/512
   8:     0.25000000    0.00000000    0.12500000         12/512
   9:     0.25000000    0.00000000    0.25000000          6/512
          ...
  64:     0.50000000    0.50000000    0.50000000          1/512

Wave functions: Plane wave expansion
  Cutoff energy: 500.000 eV
  Number of coefficients (min, max): 2512, 2612
  Pulay-stress correction: 0.000000 eV/Ang^3 (de/decut=0.000000)
  Using Numpy's FFT
  ScaLapack parameters: grid=1x1, blocksize=None
  Wavefunction extrapolation:
    Improved wavefunction reuse through dual PAW basis 

Occupation numbers: Fermi-Dirac: width=0.1000 eV
 

Eigensolver
   Davidson(niter=2) 

Densities:
  Coarse grid: 25*25*25 grid
  Fine grid: 50*50*50 grid
  Total Charge: 0.000000 

Density mixing:
  Method: difference
  Backend: pulay
  Linear mixing parameter: 0.05
  Mixing with 5 old densities
  Damping of long wave oscillations: 50 

Hamiltonian:
  XC and Coulomb potentials evaluated on a 50*50*50 grid
  Using the PBE Exchange-Correlation functional
  External potential:
    NoExternalPotential
 

XC parameters: PBE with 2 nearest neighbor stencil

Memory estimate:
  Process memory now: 124.82 MiB
  Calculator: 161.56 MiB
    Density: 9.23 MiB
      Arrays: 4.17 MiB
      Localized functions: 3.39 MiB
      Mixer: 1.67 MiB
    Hamiltonian: 3.18 MiB
      Arrays: 3.10 MiB
      XC: 0.00 MiB
      Poisson: 0.00 MiB
      vbar: 0.08 MiB
    Wavefunctions: 149.14 MiB
      Arrays psit_nG: 119.17 MiB
      Eigensolver: 1.20 MiB
      Projections: 3.97 MiB
      Projectors: 21.62 MiB
      PW-descriptor: 3.19 MiB

Total number of cores used: 1

Number of atoms: 11
Number of atomic orbitals: 44
Number of bands in calculation: 23
Number of valence electrons: 31
Bands to converge: occupied

... initialized

Initializing position-dependent things.

Density initialized from atomic densities
Creating initial wave functions:
  23 bands from LCAO basis set

    .----------.  
   /|          |  
  / | Li   Li  |  
 *  |          |  
 | O|     Li   |  
 |  | Li   Li  |  
 |  .--O-------.  
 | /Li  O Li  /   
 |/          /    
 O----------*     

Positions:
   0 Li     1.164710    3.494131    3.494131    ( 0.0000,  0.0000,  0.0000)
   1 Li     1.164710    3.494131    1.164710    ( 0.0000,  0.0000,  0.0000)
   2 Li     1.164710    1.164710    1.164710    ( 0.0000,  0.0000,  0.0000)
   3 Li     3.494131    1.164710    1.164710    ( 0.0000,  0.0000,  0.0000)
   4 Li     3.494131    3.494131    1.164710    ( 0.0000,  0.0000,  0.0000)
   5 Li     3.494131    3.494131    3.494131    ( 0.0000,  0.0000,  0.0000)
   6 Li     3.494131    1.164710    3.494131    ( 0.0000,  0.0000,  0.0000)
   7 O      0.000000    0.000000    0.000000    ( 0.0000,  0.0000,  0.0000)
   8 O      0.000000    2.329421    2.329421    ( 0.0000,  0.0000,  0.0000)
   9 O      2.329421    0.000000    2.329421    ( 0.0000,  0.0000,  0.0000)
  10 O      2.329421    2.329421    0.000000    ( 0.0000,  0.0000,  0.0000)

Unit cell:
           periodic     x           y           z      points  spacing
  1. axis:    yes    4.658842    0.000000    0.000000    25     0.1864
  2. axis:    yes    0.000000    4.658842    0.000000    25     0.1864
  3. axis:    yes    0.000000    0.000000    4.658842    25     0.1864

  Lengths:   4.658842   4.658842   4.658842
  Angles:   90.000000  90.000000  90.000000

Effective grid spacing dv^(1/3) = 0.1864

     iter     time        total  log10-change:  magmom
                         energy  eigst   dens
iter:   1 13:55:50   -52.301297                  +0.0000
iter:   2 13:56:10   -51.724948  -1.70  -0.83    -0.0000
iter:   3 13:56:32   -50.259215  -1.39  -0.87    -0.0000
iter:   4 13:56:56   -50.279736  -1.24  -1.08    -0.0000
iter:   5 13:57:20   -50.122349  -1.34  -1.31    -0.0000
iter:   6 13:57:43   -50.117259  -3.50  -1.86    -0.0000
iter:   7 13:58:07   -50.121792c -2.18  -1.91    -0.0000
iter:   8 13:58:32   -50.092695  -2.41  -1.85    -0.0000
iter:   9 13:58:55   -50.089854  -4.18c -2.44    -0.0000
iter:  10 13:59:17   -50.090259c -3.78  -2.67    -0.0000
iter:  11 13:59:40   -50.089688c -4.22c -2.63    -0.0000
iter:  12 14:00:04   -50.090389c -4.28c -3.11c   -0.0000

Converged after 12 iterations.

Dipole moment: (0.608438, 0.608438, -0.608438) |e|*Ang

Total magnetic moment: (0.000000, 0.000000, -0.000000)
Local magnetic moments:
   0 Li ( 0.000000,  0.000000,  0.000000)
   1 Li ( 0.000000,  0.000000,  0.000000)
   2 Li ( 0.000000,  0.000000,  0.000000)
   3 Li ( 0.000000,  0.000000,  0.000000)
   4 Li ( 0.000000,  0.000000,  0.000000)
   5 Li ( 0.000000,  0.000000,  0.000000)
   6 Li ( 0.000000,  0.000000,  0.000000)
   7 O  ( 0.000000,  0.000000, -0.000000)
   8 O  ( 0.000000,  0.000000, -0.000000)
   9 O  ( 0.000000,  0.000000, -0.000000)
  10 O  ( 0.000000,  0.000000, -0.000000)

Energy contributions relative to reference atoms: (reference = -9582.923946)

Kinetic:        +45.464680
Potential:      -40.460794
External:        +0.000000
XC:             -55.143140
Entropy (-ST):   -0.208875
Local:           +0.153302
--------------------------
Free energy:    -50.194827
Extrapolated:   -50.090389

Spin contamination: 0.000000 electrons
Showing only first 2 kpts
                      Up                     Down
 Kpt  Band  Eigenvalues  Occupancy  Eigenvalues  Occupancy
  0    13      0.58022    0.26628      0.58022    0.26628
  0    14      0.58023    0.26627      0.58023    0.26627
  0    15      0.58041    0.26590      0.58041    0.26590
  0    16      5.87488    0.00000      5.87488    0.00000

  1    13      0.48273    0.49034      0.48273    0.49034
  1    14      0.54212    0.34693      0.54212    0.34693
  1    15      0.54226    0.34662      0.54226    0.34662
  1    16      6.01697    0.00000      6.01697    0.00000


Fermi level: 0.47886

No gap
Timing:                              incl.     excl.
-----------------------------------------------------------
Hamiltonian:                         0.439     0.001   0.0% |
 Atomic:                             0.346     0.001   0.0% |
  XC Correction:                     0.345     0.345   0.1% |
 Calculate atomic Hamiltonians:      0.032     0.032   0.0% |
 Communicate:                        0.000     0.000   0.0% |
 Initialize Hamiltonian:             0.000     0.000   0.0% |
 Poisson:                            0.000     0.000   0.0% |
 XC 3D grid:                         0.059     0.059   0.0% |
LCAO initialization:               119.174     0.035   0.0% |
 LCAO eigensolver:                  99.508     0.007   0.0% |
  Calculate projections:             0.015     0.015   0.0% |
  DenseAtomicCorrection:             0.033     0.033   0.0% |
  Distribute overlap matrix:         0.004     0.004   0.0% |
  Orbital Layouts:                   0.104     0.104   0.0% |
  Potential matrix:                 99.256    99.256  25.2% |---------|
  Sum over cells:                    0.090     0.090   0.0% |
 LCAO to grid:                      17.514    17.514   4.4% |-|
 Set positions (LCAO WFS):           2.118     0.302   0.1% |
  Basic WFS set positions:           0.001     0.001   0.0% |
  Basis functions set positions:     0.000     0.000   0.0% |
  P tci:                             0.976     0.976   0.2% |
  ST tci:                            0.779     0.779   0.2% |
  mktci:                             0.059     0.059   0.0% |
PWDescriptor:                        0.026     0.026   0.0% |
SCF-cycle:                         273.717     1.353   0.3% |
 Davidson:                         245.136    23.965   6.1% |-|
  Apply H:                          52.311    51.690  13.1% |----|
   HMM T:                            0.620     0.620   0.2% |
  Subspace diag:                    57.444     0.114   0.0% |
   calc_h_matrix:                   55.584     1.268   0.3% |
    Apply H:                        54.316    53.720  13.6% |----|
     HMM T:                          0.596     0.596   0.2% |
   diagonalize:                      0.421     0.421   0.1% |
   rotate_psi:                       1.324     1.324   0.3% |
  calc. matrices:                  106.537     8.188   2.1% ||
   Apply H:                         98.349    96.828  24.5% |---------|
    HMM T:                           1.522     1.522   0.4% |
  diagonalize:                       2.338     2.338   0.6% |
  rotate_psi:                        2.541     2.541   0.6% |
 Density:                           21.954     0.000   0.0% |
  Atomic density matrices:           0.226     0.226   0.1% |
  Mix:                               0.511     0.511   0.1% |
  Multipole moments:                 0.002     0.002   0.0% |
  Pseudo density:                   21.215    21.168   5.4% |-|
   Symmetrize density:               0.047     0.047   0.0% |
 Hamiltonian:                        4.754     0.018   0.0% |
  Atomic:                            3.598     0.011   0.0% |
   XC Correction:                    3.587     3.587   0.9% |
  Calculate atomic Hamiltonians:     0.248     0.248   0.1% |
  Communicate:                       0.000     0.000   0.0% |
  Poisson:                           0.006     0.006   0.0% |
  XC 3D grid:                        0.884     0.884   0.2% |
 Orthonormalize:                     0.520     0.009   0.0% |
  calc_s_matrix:                     0.084     0.084   0.0% |
  inverse-cholesky:                  0.011     0.011   0.0% |
  projections:                       0.361     0.361   0.1% |
  rotate_psi_s:                      0.055     0.055   0.0% |
Set symmetry:                        0.014     0.014   0.0% |
Other:                               1.206     1.206   0.3% |
-----------------------------------------------------------
Total:                                       394.576 100.0%

Memory usage: 631.95 MiB
Date: Wed Jul 20 14:00:04 2022
