
  ___ ___ ___ _ _ _  
 |   |   |_  | | | | 
 | | | | | . | | | | 
 |__ |  _|___|_____|  22.1.0
 |___|_|             

User:   gabrielbirnbaum@Gabriels-MacBook-Pro.local
Date:   Wed Jul 20 14:59:25 2022
Arch:   x86_64
Pid:    30164
Python: 3.9.13
gpaw:   /Users/gabrielbirnbaum/PycharmProjects/nanolithia/venv/lib/python3.9/site-packages/gpaw
_gpaw:  /Users/gabrielbirnbaum/PycharmProjects/nanolithia/venv/lib/python3.9/site-packages/
        _gpaw.cpython-39-darwin.so
ase:    /Users/gabrielbirnbaum/PycharmProjects/nanolithia/venv/lib/python3.9/site-packages/ase (version 3.22.1)
numpy:  /Users/gabrielbirnbaum/PycharmProjects/nanolithia/venv/lib/python3.9/site-packages/numpy (version 1.23.0)
scipy:  /Users/gabrielbirnbaum/PycharmProjects/nanolithia/venv/lib/python3.9/site-packages/scipy (version 1.8.1)
libxc:  5.2.3
units:  Angstrom and eV
cores: 1
OpenMP: False
OMP_NUM_THREADS: 1

Input parameters:
  convergence: {density: 0.001,
                eigenstates: 0.0001,
                energy: 0.0002}
  kpts: {gamma: True,
         size: (8, 8, 8)}
  mode: {ecut: 500.0,
         name: pw}
  spinpol: True
  xc: PBE

System changes: positions, numbers, cell, pbc, initial_charges, initial_magmoms 

Initialize ...

O-setup:
  name: Oxygen
  id: 32ecd46bf208036f09c70b0ec9a88b78
  Z: 8.0
  valence: 6
  core: 2
  charge: 0.0
  file: /Users/gabrielbirnbaum/dft_learning/DIR/gpaw-setups-0.9.20000/O.PBE.gz
  compensation charges: gauss, rc=0.21, lmax=2
  cutoffs: 1.17(filt), 0.83(core),
  valence states:
                energy  radius
    2s(2.00)   -23.961   0.688
    2p(4.00)    -9.029   0.598
    *s           3.251   0.688
    *p          18.182   0.598
    *d           0.000   0.619

  Using partial waves for O as LCAO basis

Reference energy: -8163.409205

Spin-polarized calculation.
Magnetic moment: 0.000000

Convergence criteria:
 Maximum [total energy] change in last 3 cyles: 0.0002 eV / electron
 Maximum integral of absolute [dens]ity change: 0.001 electrons / valence electron
 Maximum integral of absolute [eigenst]ate change: 0.0001 eV^2 / valence electron
 Maximum number of scf [iter]ations: 333
 (Square brackets indicate name in SCF output, whereas a 'c' in
 the SCF output indicates the quantity has converged.)

Symmetries present (total): 48

  ( 1  0  0)  ( 1  0  0)  ( 1  0  0)  ( 1  0  0)  ( 1  0  0)  ( 1  0  0)
  ( 0  1  0)  ( 0  1  0)  ( 0  0  1)  ( 0  0  1)  ( 0  0 -1)  ( 0  0 -1)
  ( 0  0  1)  ( 0  0 -1)  ( 0  1  0)  ( 0 -1  0)  ( 0  1  0)  ( 0 -1  0)

  ( 1  0  0)  ( 1  0  0)  ( 0  1  0)  ( 0  1  0)  ( 0  1  0)  ( 0  1  0)
  ( 0 -1  0)  ( 0 -1  0)  ( 1  0  0)  ( 1  0  0)  ( 0  0  1)  ( 0  0  1)
  ( 0  0  1)  ( 0  0 -1)  ( 0  0  1)  ( 0  0 -1)  ( 1  0  0)  (-1  0  0)

  ( 0  1  0)  ( 0  1  0)  ( 0  1  0)  ( 0  1  0)  ( 0  0  1)  ( 0  0  1)
  ( 0  0 -1)  ( 0  0 -1)  (-1  0  0)  (-1  0  0)  ( 1  0  0)  ( 1  0  0)
  ( 1  0  0)  (-1  0  0)  ( 0  0  1)  ( 0  0 -1)  ( 0  1  0)  ( 0 -1  0)

  ( 0  0  1)  ( 0  0  1)  ( 0  0  1)  ( 0  0  1)  ( 0  0  1)  ( 0  0  1)
  ( 0  1  0)  ( 0  1  0)  ( 0 -1  0)  ( 0 -1  0)  (-1  0  0)  (-1  0  0)
  ( 1  0  0)  (-1  0  0)  ( 1  0  0)  (-1  0  0)  ( 0  1  0)  ( 0 -1  0)

  ( 0  0 -1)  ( 0  0 -1)  ( 0  0 -1)  ( 0  0 -1)  ( 0  0 -1)  ( 0  0 -1)
  ( 1  0  0)  ( 1  0  0)  ( 0  1  0)  ( 0  1  0)  ( 0 -1  0)  ( 0 -1  0)
  ( 0  1  0)  ( 0 -1  0)  ( 1  0  0)  (-1  0  0)  ( 1  0  0)  (-1  0  0)

  ( 0  0 -1)  ( 0  0 -1)  ( 0 -1  0)  ( 0 -1  0)  ( 0 -1  0)  ( 0 -1  0)
  (-1  0  0)  (-1  0  0)  ( 1  0  0)  ( 1  0  0)  ( 0  0  1)  ( 0  0  1)
  ( 0  1  0)  ( 0 -1  0)  ( 0  0  1)  ( 0  0 -1)  ( 1  0  0)  (-1  0  0)

  ( 0 -1  0)  ( 0 -1  0)  ( 0 -1  0)  ( 0 -1  0)  (-1  0  0)  (-1  0  0)
  ( 0  0 -1)  ( 0  0 -1)  (-1  0  0)  (-1  0  0)  ( 0  1  0)  ( 0  1  0)
  ( 1  0  0)  (-1  0  0)  ( 0  0  1)  ( 0  0 -1)  ( 0  0  1)  ( 0  0 -1)

  (-1  0  0)  (-1  0  0)  (-1  0  0)  (-1  0  0)  (-1  0  0)  (-1  0  0)
  ( 0  0  1)  ( 0  0  1)  ( 0  0 -1)  ( 0  0 -1)  ( 0 -1  0)  ( 0 -1  0)
  ( 0  1  0)  ( 0 -1  0)  ( 0  1  0)  ( 0 -1  0)  ( 0  0  1)  ( 0  0 -1)

512 k-points: 8 x 8 x 8 Monkhorst-Pack grid + [1/16,1/16,1/16]
35 k-points in the irreducible part of the Brillouin zone
       k-points in crystal coordinates                weights
   0:     0.00000000    0.00000000    0.00000000          1/512
   1:     0.12500000    0.00000000    0.00000000          6/512
   2:     0.12500000    0.12500000    0.00000000         12/512
   3:     0.12500000    0.12500000    0.12500000          8/512
   4:     0.25000000    0.00000000    0.00000000          6/512
   5:     0.25000000    0.12500000    0.00000000         24/512
   6:     0.25000000    0.12500000    0.12500000         24/512
   7:     0.25000000    0.25000000    0.00000000         12/512
   8:     0.25000000    0.25000000    0.12500000         24/512
   9:     0.25000000    0.25000000    0.25000000          8/512
          ...
  34:     0.50000000    0.50000000    0.50000000          1/512

Wave functions: Plane wave expansion
  Cutoff energy: 500.000 eV
  Number of coefficients (min, max): 2512, 2612
  Pulay-stress correction: 0.000000 eV/Ang^3 (de/decut=0.000000)
  Using Numpy's FFT
  ScaLapack parameters: grid=1x1, blocksize=None
  Wavefunction extrapolation:
    Improved wavefunction reuse through dual PAW basis 

Occupation numbers: Fermi-Dirac: width=0.1000 eV
 

Eigensolver
   Davidson(niter=2) 

Densities:
  Coarse grid: 25*25*25 grid
  Fine grid: 50*50*50 grid
  Total Charge: 0.000000 

Density mixing:
  Method: difference
  Backend: pulay
  Linear mixing parameter: 0.05
  Mixing with 5 old densities
  Damping of long wave oscillations: 50 

Hamiltonian:
  XC and Coulomb potentials evaluated on a 50*50*50 grid
  Using the PBE Exchange-Correlation functional
  External potential:
    NoExternalPotential
 

XC parameters: PBE with 2 nearest neighbor stencil

Memory estimate:
  Process memory now: 1009.62 MiB
  Calculator: 69.67 MiB
    Density: 8.55 MiB
      Arrays: 4.17 MiB
      Localized functions: 2.70 MiB
      Mixer: 1.67 MiB
    Hamiltonian: 3.15 MiB
      Arrays: 3.10 MiB
      XC: 0.00 MiB
      Poisson: 0.00 MiB
      vbar: 0.05 MiB
    Wavefunctions: 57.97 MiB
      Arrays psit_nG: 44.64 MiB
      Eigensolver: 0.88 MiB
      Projections: 0.89 MiB
      Projectors: 9.58 MiB
      PW-descriptor: 1.99 MiB

Total number of cores used: 1

Number of atoms: 4
Number of atomic orbitals: 16
Number of bands in calculation: 16
Number of valence electrons: 24
Bands to converge: occupied

... initialized

Initializing position-dependent things.

Density initialized from atomic densities
Creating initial wave functions:
  16 bands from LCAO basis set

    .----------.  
   /|          |  
  / |          |  
 *  |          |  
 | O|          |  
 |  |          |  
 |  .--O-------.  
 | /    O     /   
 |/          /    
 O----------*     

Positions:
   0 O      0.000000    0.000000    0.000000    ( 0.0000,  0.0000,  0.0000)
   1 O      0.000000    2.329421    2.329421    ( 0.0000,  0.0000,  0.0000)
   2 O      2.329421    0.000000    2.329421    ( 0.0000,  0.0000,  0.0000)
   3 O      2.329421    2.329421    0.000000    ( 0.0000,  0.0000,  0.0000)

Unit cell:
           periodic     x           y           z      points  spacing
  1. axis:    yes    4.658842    0.000000    0.000000    25     0.1864
  2. axis:    yes    0.000000    4.658842    0.000000    25     0.1864
  3. axis:    yes    0.000000    0.000000    4.658842    25     0.1864

  Lengths:   4.658842   4.658842   4.658842
  Angles:   90.000000  90.000000  90.000000

Effective grid spacing dv^(1/3) = 0.1864

     iter     time        total  log10-change:  magmom
                         energy  eigst   dens
iter:   1 14:59:48    -2.260749                  +0.0000
iter:   2 14:59:58    -2.251237  -2.96  -1.66    +0.0000
iter:   3 15:00:09    -2.228543  -3.23  -1.67    +0.0000
iter:   4 15:00:21    -2.220469  -1.93  -1.72    +0.0000
iter:   5 15:00:31    -2.212861  -2.24  -2.00    +0.0000
iter:   6 15:00:41    -2.295314  -2.13  -1.96    +0.0000
iter:   7 15:00:51    -2.208977  -2.06  -1.67    +0.0000
iter:   8 15:01:01    -2.209312  -3.38  -3.13c   -0.0000
iter:   9 15:01:11    -2.210083c -4.62c -3.27c   +0.0000

Converged after 9 iterations.

Dipole moment: (-0.000000, -0.000000, -0.000000) |e|*Ang

Total magnetic moment: (0.000000, 0.000000, 0.000000)
Local magnetic moments:
   0 O  ( 0.000000,  0.000000,  0.000000)
   1 O  ( 0.000000,  0.000000,  0.000000)
   2 O  ( 0.000000,  0.000000,  0.000000)
   3 O  ( 0.000000,  0.000000,  0.000000)

Energy contributions relative to reference atoms: (reference = -8163.409205)

Kinetic:        -12.256426
Potential:       +8.143661
External:        +0.000000
XC:              +2.035832
Entropy (-ST):   -0.790310
Local:           +0.262004
--------------------------
Free energy:     -2.605238
Extrapolated:    -2.210083

Spin contamination: 0.000000 electrons
Showing only first 2 kpts
                      Up                     Down
 Kpt  Band  Eigenvalues  Occupancy  Eigenvalues  Occupancy
  0    10     -5.76690    0.74894     -5.76690    0.74894
  0    11     -5.76690    0.74894     -5.76690    0.74894
  0    12     -5.76690    0.74893     -5.76690    0.74893
  0    13     -5.37311    0.05495     -5.37311    0.05495

  1    10     -5.78409    0.77986     -5.78409    0.77986
  1    11     -5.75288    0.72166     -5.75288    0.72166
  1    12     -5.75287    0.72165     -5.75287    0.72165
  1    13     -5.42130    0.08604     -5.42130    0.08604


Fermi level: -5.65760

No gap
Timing:                              incl.     excl.
-----------------------------------------------------------
Hamiltonian:                         0.245     0.005   0.0% |
 Atomic:                             0.142     0.001   0.0% |
  XC Correction:                     0.141     0.141   0.1% |
 Calculate atomic Hamiltonians:      0.006     0.006   0.0% |
 Communicate:                        0.000     0.000   0.0% |
 Initialize Hamiltonian:             0.000     0.000   0.0% |
 Poisson:                            0.000     0.000   0.0% |
 XC 3D grid:                         0.092     0.092   0.1% |
LCAO initialization:                13.076     0.012   0.0% |
 LCAO eigensolver:                   9.334     0.003   0.0% |
  Calculate projections:             0.003     0.003   0.0% |
  DenseAtomicCorrection:             0.011     0.011   0.0% |
  Distribute overlap matrix:         0.002     0.002   0.0% |
  Orbital Layouts:                   0.015     0.015   0.0% |
  Potential matrix:                  9.266     9.266   8.8% |---|
  Sum over cells:                    0.035     0.035   0.0% |
 LCAO to grid:                       3.540     3.540   3.3% ||
 Set positions (LCAO WFS):           0.191     0.019   0.0% |
  Basic WFS set positions:           0.004     0.004   0.0% |
  Basis functions set positions:     0.000     0.000   0.0% |
  P tci:                             0.083     0.083   0.1% |
  ST tci:                            0.075     0.075   0.1% |
  mktci:                             0.009     0.009   0.0% |
PWDescriptor:                        0.014     0.014   0.0% |
SCF-cycle:                          91.742     0.507   0.5% |
 Davidson:                          81.308     8.495   8.0% |--|
  Apply H:                          18.400    18.176  17.2% |------|
   HMM T:                            0.224     0.224   0.2% |
  Subspace diag:                    20.694     0.044   0.0% |
   calc_h_matrix:                   20.208     0.495   0.5% |
    Apply H:                        19.712    19.350  18.3% |------|
     HMM T:                          0.362     0.362   0.3% |
   diagonalize:                      0.124     0.124   0.1% |
   rotate_psi:                       0.318     0.318   0.3% |
  calc. matrices:                   32.667     3.469   3.3% ||
   Apply H:                         29.197    28.778  27.2% |----------|
    HMM T:                           0.419     0.419   0.4% |
  diagonalize:                       0.470     0.470   0.4% |
  rotate_psi:                        0.582     0.582   0.6% |
 Density:                            7.375     0.000   0.0% |
  Atomic density matrices:           0.062     0.062   0.1% |
  Mix:                               0.278     0.278   0.3% |
  Multipole moments:                 0.001     0.001   0.0% |
  Pseudo density:                    7.034     6.705   6.3% |--|
   Symmetrize density:               0.329     0.329   0.3% |
 Hamiltonian:                        2.251     0.035   0.0% |
  Atomic:                            1.250     0.005   0.0% |
   XC Correction:                    1.245     1.245   1.2% |
  Calculate atomic Hamiltonians:     0.067     0.067   0.1% |
  Communicate:                       0.000     0.000   0.0% |
  Poisson:                           0.004     0.004   0.0% |
  XC 3D grid:                        0.895     0.895   0.8% |
 Orthonormalize:                     0.300     0.005   0.0% |
  calc_s_matrix:                     0.171     0.171   0.2% |
  inverse-cholesky:                  0.005     0.005   0.0% |
  projections:                       0.102     0.102   0.1% |
  rotate_psi_s:                      0.017     0.017   0.0% |
Set symmetry:                        0.040     0.040   0.0% |
Other:                               0.718     0.718   0.7% |
-----------------------------------------------------------
Total:                                       105.835 100.0%

Memory usage: 1011.86 MiB
Date: Wed Jul 20 15:01:11 2022
