
  ___ ___ ___ _ _ _  
 |   |   |_  | | | | 
 | | | | | . | | | | 
 |__ |  _|___|_____|  22.1.0
 |___|_|             

User:   gabrielbirnbaum@Gabriels-MacBook-Pro.local
Date:   Sat Aug  6 19:28:33 2022
Arch:   x86_64
Pid:    90974
Python: 3.9.13
gpaw:   /Users/gabrielbirnbaum/PycharmProjects/nanolithia/venv/lib/python3.9/site-packages/gpaw
_gpaw:  /Users/gabrielbirnbaum/PycharmProjects/nanolithia/venv/lib/python3.9/site-packages/
        _gpaw.cpython-39-darwin.so
ase:    /Users/gabrielbirnbaum/PycharmProjects/nanolithia/venv/lib/python3.9/site-packages/ase (version 3.22.1)
numpy:  /Users/gabrielbirnbaum/PycharmProjects/nanolithia/venv/lib/python3.9/site-packages/numpy (version 1.23.0)
scipy:  /Users/gabrielbirnbaum/PycharmProjects/nanolithia/venv/lib/python3.9/site-packages/scipy (version 1.8.1)
libxc:  5.2.3
units:  Angstrom and eV
cores: 1
OpenMP: False
OMP_NUM_THREADS: 1

Input parameters:
  convergence: {density: 0.001,
                eigenstates: 0.0001,
                energy: 0.0002}
  kpts: {gamma: True,
         size: (6, 6, 6)}
  mode: {ecut: 600.0,
         name: pw}
  spinpol: False
  xc: PBE

Input parameters:
  nbands: -10

System changes: positions, numbers, cell, pbc, initial_charges, initial_magmoms 

Initialize ...

Li-setup:
  name: Lithium
  id: 830b4218f175192f93f959cfc0aad614
  Z: 3.0
  valence: 1
  core: 2
  charge: 0.0
  file: /Users/gabrielbirnbaum/dft_learning/DIR/gpaw-setups-0.9.20000/Li.PBE.gz
  compensation charges: gauss, rc=0.33, lmax=2
  cutoffs: 1.91(filt), 2.55(core),
  valence states:
                energy  radius
    2s(1.00)    -2.874   1.058
    2p(0.00)    -1.090   1.058
    *s          24.337   1.058

  Using partial waves for Li as LCAO basis

Reference energy: -811.151281

Spin-paired calculation

Convergence criteria:
 Maximum [total energy] change in last 3 cyles: 0.0002 eV / electron
 Maximum integral of absolute [dens]ity change: 0.001 electrons / valence electron
 Maximum integral of absolute [eigenst]ate change: 0.0001 eV^2 / valence electron
 Maximum number of scf [iter]ations: 333
 (Square brackets indicate name in SCF output, whereas a 'c' in
 the SCF output indicates the quantity has converged.)

Symmetries present (total): 48

  ( 1  0  0)  ( 1  0  0)  ( 1  0  0)  ( 1  0  0)  ( 1  0  0)  ( 1  0  0)
  ( 0  1  0)  ( 0  1  0)  ( 0  0  1)  ( 0  0  1)  ( 0  0 -1)  ( 0  0 -1)
  ( 0  0  1)  ( 0  0 -1)  ( 0  1  0)  ( 0 -1  0)  ( 0  1  0)  ( 0 -1  0)

  ( 1  0  0)  ( 1  0  0)  ( 0  1  0)  ( 0  1  0)  ( 0  1  0)  ( 0  1  0)
  ( 0 -1  0)  ( 0 -1  0)  ( 1  0  0)  ( 1  0  0)  ( 0  0  1)  ( 0  0  1)
  ( 0  0  1)  ( 0  0 -1)  ( 0  0  1)  ( 0  0 -1)  ( 1  0  0)  (-1  0  0)

  ( 0  1  0)  ( 0  1  0)  ( 0  1  0)  ( 0  1  0)  ( 0  0  1)  ( 0  0  1)
  ( 0  0 -1)  ( 0  0 -1)  (-1  0  0)  (-1  0  0)  ( 1  0  0)  ( 1  0  0)
  ( 1  0  0)  (-1  0  0)  ( 0  0  1)  ( 0  0 -1)  ( 0  1  0)  ( 0 -1  0)

  ( 0  0  1)  ( 0  0  1)  ( 0  0  1)  ( 0  0  1)  ( 0  0  1)  ( 0  0  1)
  ( 0  1  0)  ( 0  1  0)  ( 0 -1  0)  ( 0 -1  0)  (-1  0  0)  (-1  0  0)
  ( 1  0  0)  (-1  0  0)  ( 1  0  0)  (-1  0  0)  ( 0  1  0)  ( 0 -1  0)

  ( 0  0 -1)  ( 0  0 -1)  ( 0  0 -1)  ( 0  0 -1)  ( 0  0 -1)  ( 0  0 -1)
  ( 1  0  0)  ( 1  0  0)  ( 0  1  0)  ( 0  1  0)  ( 0 -1  0)  ( 0 -1  0)
  ( 0  1  0)  ( 0 -1  0)  ( 1  0  0)  (-1  0  0)  ( 1  0  0)  (-1  0  0)

  ( 0  0 -1)  ( 0  0 -1)  ( 0 -1  0)  ( 0 -1  0)  ( 0 -1  0)  ( 0 -1  0)
  (-1  0  0)  (-1  0  0)  ( 1  0  0)  ( 1  0  0)  ( 0  0  1)  ( 0  0  1)
  ( 0  1  0)  ( 0 -1  0)  ( 0  0  1)  ( 0  0 -1)  ( 1  0  0)  (-1  0  0)

  ( 0 -1  0)  ( 0 -1  0)  ( 0 -1  0)  ( 0 -1  0)  (-1  0  0)  (-1  0  0)
  ( 0  0 -1)  ( 0  0 -1)  (-1  0  0)  (-1  0  0)  ( 0  1  0)  ( 0  1  0)
  ( 1  0  0)  (-1  0  0)  ( 0  0  1)  ( 0  0 -1)  ( 0  0  1)  ( 0  0 -1)

  (-1  0  0)  (-1  0  0)  (-1  0  0)  (-1  0  0)  (-1  0  0)  (-1  0  0)
  ( 0  0  1)  ( 0  0  1)  ( 0  0 -1)  ( 0  0 -1)  ( 0 -1  0)  ( 0 -1  0)
  ( 0  1  0)  ( 0 -1  0)  ( 0  1  0)  ( 0 -1  0)  ( 0  0  1)  ( 0  0 -1)

216 k-points: 6 x 6 x 6 Monkhorst-Pack grid + [1/12,1/12,1/12]
20 k-points in the irreducible part of the Brillouin zone
       k-points in crystal coordinates                weights
   0:     0.00000000    0.00000000    0.00000000          1/216
   1:     0.16666667    0.00000000    0.00000000          6/216
   2:     0.16666667    0.16666667    0.00000000         12/216
   3:     0.16666667    0.16666667    0.16666667          8/216
   4:     0.33333333    0.00000000    0.00000000          6/216
   5:     0.33333333    0.16666667    0.00000000         24/216
   6:     0.33333333    0.16666667    0.16666667         24/216
   7:     0.33333333    0.33333333    0.00000000         12/216
   8:     0.33333333    0.33333333    0.16666667         24/216
   9:     0.33333333    0.33333333    0.33333333          8/216
          ...
  19:     0.50000000    0.50000000    0.50000000          1/216

Wave functions: Plane wave expansion
  Cutoff energy: 600.000 eV
  Number of coefficients (min, max): 2608, 2730
  Pulay-stress correction: 0.000000 eV/Ang^3 (de/decut=0.000000)
  Using Numpy's FFT
  ScaLapack parameters: grid=1x1, blocksize=None
  Wavefunction extrapolation:
    Improved wavefunction reuse through dual PAW basis 

Occupation numbers: Fermi-Dirac: width=0.1000 eV
 

Eigensolver
   Davidson(niter=2) 

Densities:
  Coarse grid: 25*25*25 grid
  Fine grid: 50*50*50 grid
  Total Charge: 0.000000 

Density mixing:
  Method: separate
  Backend: pulay
  Linear mixing parameter: 0.05
  Mixing with 5 old densities
  Damping of long wave oscillations: 50 

Hamiltonian:
  XC and Coulomb potentials evaluated on a 50*50*50 grid
  Using the PBE Exchange-Correlation functional
  External potential:
    NoExternalPotential
 

XC parameters: PBE with 2 nearest neighbor stencil

Memory estimate:
  Process memory now: 640.44 MiB
  Calculator: 24.33 MiB
    Density: 7.14 MiB
      Arrays: 3.10 MiB
      Localized functions: 2.85 MiB
      Mixer: 1.19 MiB
    Hamiltonian: 2.08 MiB
      Arrays: 2.03 MiB
      XC: 0.00 MiB
      Poisson: 0.00 MiB
      vbar: 0.06 MiB
    Wavefunctions: 15.10 MiB
      Arrays psit_nG: 10.00 MiB
      Eigensolver: 0.73 MiB
      Projections: 0.07 MiB
      Projectors: 2.87 MiB
      PW-descriptor: 1.43 MiB

Total number of cores used: 1

Number of atoms: 4
Number of atomic orbitals: 16
Number of bands in calculation: 12
Number of valence electrons: 4
Bands to converge: occupied

... initialized

Initializing position-dependent things.

Density initialized from atomic densities
Creating initial wave functions:
  12 bands from LCAO basis set

    .----------.  
   /|          |  
  / |          |  
 *  |          |  
 |Li|          |  
 |  .----------.  
 | /  Li      /   
 |/     Li   /    
 Li---------*     

Positions:
   0 Li     0.000000    0.000000    0.000000    ( 0.0000,  0.0000,  0.0000)
   1 Li     0.000000    2.159945    2.159945    ( 0.0000,  0.0000,  0.0000)
   2 Li     2.159945    0.000000    2.159945    ( 0.0000,  0.0000,  0.0000)
   3 Li     2.159945    2.159945    0.000000    ( 0.0000,  0.0000,  0.0000)

Unit cell:
           periodic     x           y           z      points  spacing
  1. axis:    yes    4.319890    0.000000    0.000000    25     0.1728
  2. axis:    yes    0.000000    4.319890    0.000000    25     0.1728
  3. axis:    yes    0.000000    0.000000    4.319890    25     0.1728

  Lengths:   4.319890   4.319890   4.319890
  Angles:   90.000000  90.000000  90.000000

Effective grid spacing dv^(1/3) = 0.1728

     iter     time        total  log10-change:
                         energy  eigst   dens
iter:   1 19:34:28    -7.669855
iter:   2 19:34:30    -7.668234  -1.75  -1.25
iter:   3 19:34:32    -8.032305  -1.79  -1.25
iter:   4 19:34:34    -7.618583  -1.50  -0.77
iter:   5 19:34:36    -7.617791  -3.33  -2.52
iter:   6 19:34:38    -7.617818c -4.52c -2.18
iter:   7 19:34:40    -7.617852c -5.30c -2.27
iter:   8 19:34:42    -7.617837c -7.05c -2.69
iter:   9 19:34:44    -7.617838c -8.31c -3.08c

Converged after 9 iterations.

Dipole moment: (-0.000000, 0.000000, -0.000000) |e|*Ang

Energy contributions relative to reference atoms: (reference = -811.151281)

Kinetic:         +7.839601
Potential:       -6.637966
External:        +0.000000
XC:              -8.756047
Entropy (-ST):   -0.066247
Local:           -0.030302
--------------------------
Free energy:     -7.650962
Extrapolated:    -7.617838

Showing only first 2 kpts
 Kpt  Band  Eigenvalues  Occupancy
  0     0     -3.22184    2.00000
  0     1      1.89276    0.00000
  0     2      1.89276    0.00000
  0     3      1.89276    0.00000

  1     0     -3.05515    2.00000
  1     1      0.90718    0.00409
  1     2      2.11361    0.00000
  1     3      2.11361    0.00000


Fermi level: 0.28807

No gap
Writing to /Users/gabrielbirnbaum/PycharmProjects/nanolithia/calculators/Li-mp-1-PBE-6x6x6-600.gpw (mode='')

Timing:                              incl.     excl.
-----------------------------------------------------------
Hamiltonian:                         0.125     0.002   0.0% |
 Atomic:                             0.074     0.001   0.0% |
  XC Correction:                     0.074     0.074   0.0% |
 Calculate atomic Hamiltonians:      0.011     0.011   0.0% |
 Communicate:                        0.000     0.000   0.0% |
 Initialize Hamiltonian:             0.000     0.000   0.0% |
 Poisson:                            0.000     0.000   0.0% |
 XC 3D grid:                         0.038     0.038   0.0% |
LCAO initialization:                 1.173     0.008   0.0% |
 LCAO eigensolver:                   0.213     0.001   0.0% |
  Calculate projections:             0.001     0.001   0.0% |
  DenseAtomicCorrection:             0.003     0.003   0.0% |
  Distribute overlap matrix:         0.000     0.000   0.0% |
  Orbital Layouts:                   0.005     0.005   0.0% |
  Potential matrix:                  0.196     0.196   0.1% |
  Sum over cells:                    0.006     0.006   0.0% |
 LCAO to grid:                       0.759     0.759   0.2% |
 Set positions (LCAO WFS):           0.193     0.034   0.0% |
  Basic WFS set positions:           0.004     0.004   0.0% |
  Basis functions set positions:     0.000     0.000   0.0% |
  P tci:                             0.064     0.064   0.0% |
  ST tci:                            0.078     0.078   0.0% |
  mktci:                             0.012     0.012   0.0% |
PWDescriptor:                        0.010     0.010   0.0% |
SCF-cycle:                          17.505     0.036   0.0% |
 Davidson:                          14.580     0.789   0.2% |
  Apply H:                           3.240     3.203   0.9% |
   HMM T:                            0.037     0.037   0.0% |
  Subspace diag:                     3.420     0.012   0.0% |
   calc_h_matrix:                    3.311     0.069   0.0% |
    Apply H:                         3.242     3.198   0.9% |
     HMM T:                          0.043     0.043   0.0% |
   diagonalize:                      0.031     0.031   0.0% |
   rotate_psi:                       0.066     0.066   0.0% |
  calc. matrices:                    6.914     0.444   0.1% |
   Apply H:                          6.470     6.387   1.7% ||
    HMM T:                           0.083     0.083   0.0% |
  diagonalize:                       0.107     0.107   0.0% |
  rotate_psi:                        0.110     0.110   0.0% |
 Density:                            1.767     0.000   0.0% |
  Atomic density matrices:           0.021     0.021   0.0% |
  Mix:                               0.159     0.159   0.0% |
  Multipole moments:                 0.001     0.001   0.0% |
  Pseudo density:                    1.587     1.417   0.4% |
   Symmetrize density:               0.170     0.170   0.0% |
 Hamiltonian:                        1.098     0.010   0.0% |
  Atomic:                            0.696     0.006   0.0% |
   XC Correction:                    0.690     0.690   0.2% |
  Calculate atomic Hamiltonians:     0.078     0.078   0.0% |
  Communicate:                       0.000     0.000   0.0% |
  Poisson:                           0.004     0.004   0.0% |
  XC 3D grid:                        0.310     0.310   0.1% |
 Orthonormalize:                     0.025     0.001   0.0% |
  calc_s_matrix:                     0.007     0.007   0.0% |
  inverse-cholesky:                  0.001     0.001   0.0% |
  projections:                       0.012     0.012   0.0% |
  rotate_psi_s:                      0.004     0.004   0.0% |
Set symmetry:                        0.025     0.025   0.0% |
Other:                             352.900   352.900  94.9% |-------------------------------------|
-----------------------------------------------------------
Total:                                       371.738 100.0%

Date: Sat Aug  6 19:34:44 2022
