
  ___ ___ ___ _ _ _  
 |   |   |_  | | | | 
 | | | | | . | | | | 
 |__ |  _|___|_____|  22.1.0
 |___|_|             

User:   gabrielbirnbaum@Gabriels-MacBook-Pro.local
Date:   Sat Aug  6 21:37:16 2022
Arch:   x86_64
Pid:    6664
Python: 3.9.13
gpaw:   /Users/gabrielbirnbaum/PycharmProjects/nanolithia/venv/lib/python3.9/site-packages/gpaw
_gpaw:  /Users/gabrielbirnbaum/PycharmProjects/nanolithia/venv/lib/python3.9/site-packages/
        _gpaw.cpython-39-darwin.so
ase:    /Users/gabrielbirnbaum/PycharmProjects/nanolithia/venv/lib/python3.9/site-packages/ase (version 3.22.1)
numpy:  /Users/gabrielbirnbaum/PycharmProjects/nanolithia/venv/lib/python3.9/site-packages/numpy (version 1.23.0)
scipy:  /Users/gabrielbirnbaum/PycharmProjects/nanolithia/venv/lib/python3.9/site-packages/scipy (version 1.8.1)
libxc:  5.2.3
units:  Angstrom and eV
cores: 1
OpenMP: False
OMP_NUM_THREADS: 1

Input parameters:
  convergence: {density: 0.001,
                eigenstates: 0.0001,
                energy: 0.0002}
  kpts: {gamma: True,
         size: (6, 6, 6)}
  mode: {ecut: 900.0000000000001,
         name: pw}
  spinpol: False
  xc: PBE

Input parameters:
  nbands: -10

System changes: positions, numbers, cell, pbc, initial_charges, initial_magmoms 

Initialize ...

Li-setup:
  name: Lithium
  id: 830b4218f175192f93f959cfc0aad614
  Z: 3.0
  valence: 1
  core: 2
  charge: 0.0
  file: /Users/gabrielbirnbaum/dft_learning/DIR/gpaw-setups-0.9.20000/Li.PBE.gz
  compensation charges: gauss, rc=0.33, lmax=2
  cutoffs: 1.91(filt), 2.55(core),
  valence states:
                energy  radius
    2s(1.00)    -2.874   1.058
    2p(0.00)    -1.090   1.058
    *s          24.337   1.058

  Using partial waves for Li as LCAO basis

Reference energy: -811.151281

Spin-paired calculation

Convergence criteria:
 Maximum [total energy] change in last 3 cyles: 0.0002 eV / electron
 Maximum integral of absolute [dens]ity change: 0.001 electrons / valence electron
 Maximum integral of absolute [eigenst]ate change: 0.0001 eV^2 / valence electron
 Maximum number of scf [iter]ations: 333
 (Square brackets indicate name in SCF output, whereas a 'c' in
 the SCF output indicates the quantity has converged.)

Symmetries present (total): 48

  ( 1  0  0)  ( 1  0  0)  ( 1  0  0)  ( 1  0  0)  ( 1  0  0)  ( 1  0  0)
  ( 0  1  0)  ( 0  1  0)  ( 0  0  1)  ( 0  0  1)  ( 0  0 -1)  ( 0  0 -1)
  ( 0  0  1)  ( 0  0 -1)  ( 0  1  0)  ( 0 -1  0)  ( 0  1  0)  ( 0 -1  0)

  ( 1  0  0)  ( 1  0  0)  ( 0  1  0)  ( 0  1  0)  ( 0  1  0)  ( 0  1  0)
  ( 0 -1  0)  ( 0 -1  0)  ( 1  0  0)  ( 1  0  0)  ( 0  0  1)  ( 0  0  1)
  ( 0  0  1)  ( 0  0 -1)  ( 0  0  1)  ( 0  0 -1)  ( 1  0  0)  (-1  0  0)

  ( 0  1  0)  ( 0  1  0)  ( 0  1  0)  ( 0  1  0)  ( 0  0  1)  ( 0  0  1)
  ( 0  0 -1)  ( 0  0 -1)  (-1  0  0)  (-1  0  0)  ( 1  0  0)  ( 1  0  0)
  ( 1  0  0)  (-1  0  0)  ( 0  0  1)  ( 0  0 -1)  ( 0  1  0)  ( 0 -1  0)

  ( 0  0  1)  ( 0  0  1)  ( 0  0  1)  ( 0  0  1)  ( 0  0  1)  ( 0  0  1)
  ( 0  1  0)  ( 0  1  0)  ( 0 -1  0)  ( 0 -1  0)  (-1  0  0)  (-1  0  0)
  ( 1  0  0)  (-1  0  0)  ( 1  0  0)  (-1  0  0)  ( 0  1  0)  ( 0 -1  0)

  ( 0  0 -1)  ( 0  0 -1)  ( 0  0 -1)  ( 0  0 -1)  ( 0  0 -1)  ( 0  0 -1)
  ( 1  0  0)  ( 1  0  0)  ( 0  1  0)  ( 0  1  0)  ( 0 -1  0)  ( 0 -1  0)
  ( 0  1  0)  ( 0 -1  0)  ( 1  0  0)  (-1  0  0)  ( 1  0  0)  (-1  0  0)

  ( 0  0 -1)  ( 0  0 -1)  ( 0 -1  0)  ( 0 -1  0)  ( 0 -1  0)  ( 0 -1  0)
  (-1  0  0)  (-1  0  0)  ( 1  0  0)  ( 1  0  0)  ( 0  0  1)  ( 0  0  1)
  ( 0  1  0)  ( 0 -1  0)  ( 0  0  1)  ( 0  0 -1)  ( 1  0  0)  (-1  0  0)

  ( 0 -1  0)  ( 0 -1  0)  ( 0 -1  0)  ( 0 -1  0)  (-1  0  0)  (-1  0  0)
  ( 0  0 -1)  ( 0  0 -1)  (-1  0  0)  (-1  0  0)  ( 0  1  0)  ( 0  1  0)
  ( 1  0  0)  (-1  0  0)  ( 0  0  1)  ( 0  0 -1)  ( 0  0  1)  ( 0  0 -1)

  (-1  0  0)  (-1  0  0)  (-1  0  0)  (-1  0  0)  (-1  0  0)  (-1  0  0)
  ( 0  0  1)  ( 0  0  1)  ( 0  0 -1)  ( 0  0 -1)  ( 0 -1  0)  ( 0 -1  0)
  ( 0  1  0)  ( 0 -1  0)  ( 0  1  0)  ( 0 -1  0)  ( 0  0  1)  ( 0  0 -1)

216 k-points: 6 x 6 x 6 Monkhorst-Pack grid + [1/12,1/12,1/12]
20 k-points in the irreducible part of the Brillouin zone
       k-points in crystal coordinates                weights
   0:     0.00000000    0.00000000    0.00000000          1/216
   1:     0.16666667    0.00000000    0.00000000          6/216
   2:     0.16666667    0.16666667    0.00000000         12/216
   3:     0.16666667    0.16666667    0.16666667          8/216
   4:     0.33333333    0.00000000    0.00000000          6/216
   5:     0.33333333    0.16666667    0.00000000         24/216
   6:     0.33333333    0.16666667    0.16666667         24/216
   7:     0.33333333    0.33333333    0.00000000         12/216
   8:     0.33333333    0.33333333    0.16666667         24/216
   9:     0.33333333    0.33333333    0.33333333          8/216
          ...
  19:     0.50000000    0.50000000    0.50000000          1/216

Wave functions: Plane wave expansion
  Cutoff energy: 900.000 eV
  Number of coefficients (min, max): 4896, 4972
  Pulay-stress correction: 0.000000 eV/Ang^3 (de/decut=0.000000)
  Using Numpy's FFT
  ScaLapack parameters: grid=1x1, blocksize=None
  Wavefunction extrapolation:
    Improved wavefunction reuse through dual PAW basis 

Occupation numbers: Fermi-Dirac: width=0.1000 eV
 

Eigensolver
   Davidson(niter=2) 

Densities:
  Coarse grid: 30*30*30 grid
  Fine grid: 60*60*60 grid
  Total Charge: 0.000000 

Density mixing:
  Method: separate
  Backend: pulay
  Linear mixing parameter: 0.05
  Mixing with 5 old densities
  Damping of long wave oscillations: 50 

Hamiltonian:
  XC and Coulomb potentials evaluated on a 60*60*60 grid
  Using the PBE Exchange-Correlation functional
  External potential:
    NoExternalPotential
 

XC parameters: PBE with 2 nearest neighbor stencil

Memory estimate:
  Process memory now: 966.54 MiB
  Calculator: 43.67 MiB
    Density: 12.64 MiB
      Arrays: 5.36 MiB
      Localized functions: 5.23 MiB
      Mixer: 2.06 MiB
    Hamiltonian: 3.61 MiB
      Arrays: 3.50 MiB
      XC: 0.00 MiB
      Poisson: 0.00 MiB
      vbar: 0.11 MiB
    Wavefunctions: 27.42 MiB
      Arrays psit_nG: 18.21 MiB
      Eigensolver: 1.31 MiB
      Projections: 0.07 MiB
      Projectors: 5.28 MiB
      PW-descriptor: 2.55 MiB

Total number of cores used: 1

Number of atoms: 4
Number of atomic orbitals: 16
Number of bands in calculation: 12
Number of valence electrons: 4
Bands to converge: occupied

... initialized

Initializing position-dependent things.

Density initialized from atomic densities
Creating initial wave functions:
  12 bands from LCAO basis set

    .----------.  
   /|          |  
  / |          |  
 *  |          |  
 |Li|          |  
 |  .----------.  
 | /  Li      /   
 |/     Li   /    
 Li---------*     

Positions:
   0 Li     0.000000    0.000000    0.000000    ( 0.0000,  0.0000,  0.0000)
   1 Li     0.000000    2.159945    2.159945    ( 0.0000,  0.0000,  0.0000)
   2 Li     2.159945    0.000000    2.159945    ( 0.0000,  0.0000,  0.0000)
   3 Li     2.159945    2.159945    0.000000    ( 0.0000,  0.0000,  0.0000)

Unit cell:
           periodic     x           y           z      points  spacing
  1. axis:    yes    4.319890    0.000000    0.000000    30     0.1440
  2. axis:    yes    0.000000    4.319890    0.000000    30     0.1440
  3. axis:    yes    0.000000    0.000000    4.319890    30     0.1440

  Lengths:   4.319890   4.319890   4.319890
  Angles:   90.000000  90.000000  90.000000

Effective grid spacing dv^(1/3) = 0.1440

     iter     time        total  log10-change:
                         energy  eigst   dens
iter:   1 21:48:07    -7.669984
iter:   2 21:48:10    -7.668423  -1.73  -1.25
iter:   3 21:48:13    -8.003747  -1.76  -1.25
iter:   4 21:48:16    -7.618781  -1.48  -0.76
iter:   5 21:48:19    -7.617992  -3.28  -2.53
iter:   6 21:48:22    -7.618050c -4.36c -2.18
iter:   7 21:48:25    -7.618053c -5.57c -3.31c

Converged after 7 iterations.

Dipole moment: (-0.000000, -0.000000, -0.000000) |e|*Ang

Energy contributions relative to reference atoms: (reference = -811.151281)

Kinetic:         +7.937244
Potential:       -6.720415
External:        +0.000000
XC:              -8.768742
Entropy (-ST):   -0.066248
Local:           -0.033015
--------------------------
Free energy:     -7.651177
Extrapolated:    -7.618053

Showing only first 2 kpts
 Kpt  Band  Eigenvalues  Occupancy
  0     0     -3.22104    2.00000
  0     1      1.89369    0.00000
  0     2      1.89369    0.00000
  0     3      1.89369    0.00000

  1     0     -3.05435    2.00000
  1     1      0.90804    0.00408
  1     2      2.11453    0.00000
  1     3      2.11453    0.00000


Fermi level: 0.28888

No gap
Writing to /Users/gabrielbirnbaum/PycharmProjects/nanolithia/calculators/Li-mp-1-PBE-6x6x6-900.gpw (mode='')

Timing:                              incl.     excl.
-----------------------------------------------------------
Hamiltonian:                         0.156     0.001   0.0% |
 Atomic:                             0.074     0.001   0.0% |
  XC Correction:                     0.074     0.074   0.0% |
 Calculate atomic Hamiltonians:      0.015     0.015   0.0% |
 Communicate:                        0.000     0.000   0.0% |
 Initialize Hamiltonian:             0.000     0.000   0.0% |
 Poisson:                            0.001     0.001   0.0% |
 XC 3D grid:                         0.065     0.065   0.0% |
LCAO initialization:                 1.807     0.009   0.0% |
 LCAO eigensolver:                   0.338     0.001   0.0% |
  Calculate projections:             0.000     0.000   0.0% |
  DenseAtomicCorrection:             0.002     0.002   0.0% |
  Distribute overlap matrix:         0.000     0.000   0.0% |
  Orbital Layouts:                   0.003     0.003   0.0% |
  Potential matrix:                  0.328     0.328   0.0% |
  Sum over cells:                    0.004     0.004   0.0% |
 LCAO to grid:                       1.261     1.261   0.2% |
 Set positions (LCAO WFS):           0.199     0.035   0.0% |
  Basic WFS set positions:           0.004     0.004   0.0% |
  Basis functions set positions:     0.000     0.000   0.0% |
  P tci:                             0.068     0.068   0.0% |
  ST tci:                            0.079     0.079   0.0% |
  mktci:                             0.013     0.013   0.0% |
PWDescriptor:                        0.016     0.016   0.0% |
SCF-cycle:                          21.202     0.029   0.0% |
 Davidson:                          18.009     0.852   0.1% |
  Apply H:                           4.135     4.096   0.6% |
   HMM T:                            0.039     0.039   0.0% |
  Subspace diag:                     4.278     0.009   0.0% |
   calc_h_matrix:                    4.161     0.069   0.0% |
    Apply H:                         4.092     4.051   0.6% |
     HMM T:                          0.042     0.042   0.0% |
   diagonalize:                      0.024     0.024   0.0% |
   rotate_psi:                       0.084     0.084   0.0% |
  calc. matrices:                    8.525     0.383   0.1% |
   Apply H:                          8.142     8.066   1.2% |
    HMM T:                           0.076     0.076   0.0% |
  diagonalize:                       0.074     0.074   0.0% |
  rotate_psi:                        0.146     0.146   0.0% |
 Density:                            2.181     0.000   0.0% |
  Atomic density matrices:           0.016     0.016   0.0% |
  Mix:                               0.163     0.163   0.0% |
  Multipole moments:                 0.001     0.001   0.0% |
  Pseudo density:                    2.001     1.776   0.3% |
   Symmetrize density:               0.225     0.225   0.0% |
 Hamiltonian:                        0.949     0.011   0.0% |
  Atomic:                            0.454     0.004   0.0% |
   XC Correction:                    0.450     0.450   0.1% |
  Calculate atomic Hamiltonians:     0.083     0.083   0.0% |
  Communicate:                       0.000     0.000   0.0% |
  Poisson:                           0.006     0.006   0.0% |
  XC 3D grid:                        0.395     0.395   0.1% |
 Orthonormalize:                     0.034     0.001   0.0% |
  calc_s_matrix:                     0.006     0.006   0.0% |
  inverse-cholesky:                  0.001     0.001   0.0% |
  projections:                       0.019     0.019   0.0% |
  rotate_psi_s:                      0.006     0.006   0.0% |
Set symmetry:                        0.026     0.026   0.0% |
Other:                             646.246   646.246  96.5% |--------------------------------------|
-----------------------------------------------------------
Total:                                       669.453 100.0%

Date: Sat Aug  6 21:48:26 2022
