
  ___ ___ ___ _ _ _  
 |   |   |_  | | | | 
 | | | | | . | | | | 
 |__ |  _|___|_____|  22.1.0
 |___|_|             

User:   gabrielbirnbaum@Gabriels-MacBook-Pro.local
Date:   Wed Aug  3 19:09:35 2022
Arch:   x86_64
Pid:    19264
Python: 3.9.13
gpaw:   /Users/gabrielbirnbaum/PycharmProjects/nanolithia/venv/lib/python3.9/site-packages/gpaw
_gpaw:  /Users/gabrielbirnbaum/PycharmProjects/nanolithia/venv/lib/python3.9/site-packages/
        _gpaw.cpython-39-darwin.so
ase:    /Users/gabrielbirnbaum/PycharmProjects/nanolithia/venv/lib/python3.9/site-packages/ase (version 3.22.1)
numpy:  /Users/gabrielbirnbaum/PycharmProjects/nanolithia/venv/lib/python3.9/site-packages/numpy (version 1.23.0)
scipy:  /Users/gabrielbirnbaum/PycharmProjects/nanolithia/venv/lib/python3.9/site-packages/scipy (version 1.8.1)
libxc:  5.2.3
units:  Angstrom and eV
cores: 1
OpenMP: False
OMP_NUM_THREADS: 1

Input parameters:
  convergence: {density: 0.001,
                eigenstates: 0.0001,
                energy: 0.0002}
  kpts: {gamma: True,
         size: (6, 6, 6)}
  mode: {ecut: 1000.0,
         name: pw}
  spinpol: False
  xc: PBE

System changes: positions, numbers, cell, pbc, initial_charges, initial_magmoms 

Initialize ...

Li-setup:
  name: Lithium
  id: 830b4218f175192f93f959cfc0aad614
  Z: 3.0
  valence: 1
  core: 2
  charge: 0.0
  file: /Users/gabrielbirnbaum/dft_learning/DIR/gpaw-setups-0.9.20000/Li.PBE.gz
  compensation charges: gauss, rc=0.33, lmax=2
  cutoffs: 1.91(filt), 2.55(core),
  valence states:
                energy  radius
    2s(1.00)    -2.874   1.058
    2p(0.00)    -1.090   1.058
    *s          24.337   1.058

  Using partial waves for Li as LCAO basis

O-setup:
  name: Oxygen
  id: 32ecd46bf208036f09c70b0ec9a88b78
  Z: 8.0
  valence: 6
  core: 2
  charge: 0.0
  file: /Users/gabrielbirnbaum/dft_learning/DIR/gpaw-setups-0.9.20000/O.PBE.gz
  compensation charges: gauss, rc=0.21, lmax=2
  cutoffs: 1.17(filt), 0.83(core),
  valence states:
                energy  radius
    2s(2.00)   -23.961   0.688
    2p(4.00)    -9.029   0.598
    *s           3.251   0.688
    *p          18.182   0.598
    *d           0.000   0.619

  Using partial waves for O as LCAO basis

Reference energy: -8974.560486

Spin-paired calculation

Convergence criteria:
 Maximum [total energy] change in last 3 cyles: 0.0002 eV / electron
 Maximum integral of absolute [dens]ity change: 0.001 electrons / valence electron
 Maximum integral of absolute [eigenst]ate change: 0.0001 eV^2 / valence electron
 Maximum number of scf [iter]ations: 333
 (Square brackets indicate name in SCF output, whereas a 'c' in
 the SCF output indicates the quantity has converged.)

Symmetries present (total): 4

  ( 1  0  0)  ( 0  1  0)  ( 0 -1  0)  (-1  0  0)
  ( 0  1  0)  ( 1  0  0)  (-1  0  0)  ( 0 -1  0)
  ( 0  0  1)  ( 0  0 -1)  ( 0  0  1)  ( 0  0 -1)

216 k-points: 6 x 6 x 6 Monkhorst-Pack grid + [1/12,1/12,1/12]
68 k-points in the irreducible part of the Brillouin zone
       k-points in crystal coordinates                weights
   0:     0.00000000    0.00000000    0.00000000          1/216
   1:     0.00000000    0.00000000    0.16666667          2/216
   2:     0.00000000    0.00000000    0.33333333          2/216
   3:     0.00000000    0.00000000    0.50000000          1/216
   4:     0.16666667   -0.16666667   -0.33333333          2/216
   5:     0.16666667   -0.16666667   -0.16666667          2/216
   6:     0.16666667   -0.16666667    0.00000000          2/216
   7:     0.16666667   -0.16666667    0.16666667          2/216
   8:     0.16666667   -0.16666667    0.33333333          2/216
   9:     0.16666667   -0.16666667    0.50000000          2/216
          ...
  67:     0.50000000    0.50000000    0.50000000          1/216

Wave functions: Plane wave expansion
  Cutoff energy: 1000.000 eV
  Number of coefficients (min, max): 4804, 4905
  Pulay-stress correction: 0.000000 eV/Ang^3 (de/decut=0.000000)
  Using Numpy's FFT
  ScaLapack parameters: grid=1x1, blocksize=None
  Wavefunction extrapolation:
    Improved wavefunction reuse through dual PAW basis 

Occupation numbers: Fermi-Dirac: width=0.1000 eV
 

Eigensolver
   Davidson(niter=2) 

Densities:
  Coarse grid: 24*24*60 grid
  Fine grid: 48*48*120 grid
  Total Charge: 0.000000 

Density mixing:
  Method: separate
  Backend: pulay
  Linear mixing parameter: 0.05
  Mixing with 5 old densities
  Damping of long wave oscillations: 50 

Hamiltonian:
  XC and Coulomb potentials evaluated on a 48*48*120 grid
  Using the PBE Exchange-Correlation functional
  External potential:
    NoExternalPotential
 

XC parameters: PBE with 2 nearest neighbor stencil

Memory estimate:
  Process memory now: 246.37 MiB
  Calculator: 180.17 MiB
    Density: 15.91 MiB
      Arrays: 6.86 MiB
      Localized functions: 6.42 MiB
      Mixer: 2.64 MiB
    Hamiltonian: 4.64 MiB
      Arrays: 4.48 MiB
      XC: 0.00 MiB
      Poisson: 0.00 MiB
      vbar: 0.16 MiB
    Wavefunctions: 159.62 MiB
      Arrays psit_nG: 106.88 MiB
      Eigensolver: 2.01 MiB
      Projections: 1.57 MiB
      Projectors: 42.75 MiB
      PW-descriptor: 6.41 MiB

Total number of cores used: 1

Number of atoms: 8
Number of atomic orbitals: 32
Number of bands in calculation: 21
Number of valence electrons: 28
Bands to converge: occupied

... initialized

Initializing position-dependent things.

Density initialized from atomic densities
Creating initial wave functions:
  21 bands from LCAO basis set

                      
                      
                      
                      
             O        
                      
           LiO        
                      
        Li            
                      
           O Li       
                      
           O          
        Li            
                      
                      
                      
                      

Positions:
   0 Li     0.000000    0.000000    3.851761    ( 0.0000,  0.0000,  0.0000)
   1 Li     0.000000    0.000000    0.000000    ( 0.0000,  0.0000,  0.0000)
   2 Li     1.590181   -0.918093    5.777642    ( 0.0000,  0.0000,  0.0000)
   3 Li     1.590181    0.918093    1.925881    ( 0.0000,  0.0000,  0.0000)
   4 O      1.590181   -0.918093    1.150213    ( 0.0000,  0.0000,  0.0000)
   5 O      1.590181    0.918093    5.001974    ( 0.0000,  0.0000,  0.0000)
   6 O      1.590181    0.918093    6.553309    ( 0.0000,  0.0000,  0.0000)
   7 O      1.590181   -0.918093    2.701548    ( 0.0000,  0.0000,  0.0000)

Unit cell:
           periodic     x           y           z      points  spacing
  1. axis:    yes    1.590181   -2.754274    0.000000    24     0.1148
  2. axis:    yes    1.590181    2.754274    0.000000    24     0.1148
  3. axis:    yes    0.000000    0.000000    7.703522    60     0.1284

  Lengths:   3.180362   3.180362   7.703522
  Angles:   90.000000  90.000000 119.999995

Effective grid spacing dv^(1/3) = 0.1250

     iter     time        total  log10-change:
                         energy  eigst   dens
iter:   1 19:10:45   -40.920460
iter:   2 19:11:06   -40.696022  -1.54  -0.89
iter:   3 19:11:26   -39.688727  -1.21  -0.92
iter:   4 19:11:46   -40.181724  -1.16  -1.25
iter:   5 19:12:06   -39.584484  -1.26  -1.28
iter:   6 19:12:27   -39.585762  -3.10  -2.10
iter:   7 19:12:48   -39.649870  -2.00  -2.11
iter:   8 19:13:09   -39.606939  -1.73  -1.76
iter:   9 19:13:30   -39.595987  -4.01c -1.98
iter:  10 19:13:51   -39.595662  -5.53c -2.09
iter:  11 19:14:11   -39.582762  -2.56  -2.09
iter:  12 19:14:32   -39.582567  -4.92c -3.01c
iter:  13 19:14:52   -39.582610c -4.64c -3.30c

Converged after 13 iterations.

Dipole moment: (0.000000, -0.000000, -0.000000) |e|*Ang

Energy contributions relative to reference atoms: (reference = -8974.560486)

Kinetic:        +44.047730
Potential:      -42.542843
External:        +0.000000
XC:             -42.022962
Entropy (-ST):   -0.000008
Local:           +0.935468
--------------------------
Free energy:    -39.582614
Extrapolated:   -39.582610

Showing only first 2 kpts
 Kpt  Band  Eigenvalues  Occupancy
  0    12      2.64661    1.99999
  0    13      2.64662    1.99999
  0    14      4.72684    0.00026
  0    15      6.95743    0.00000

  1    12      2.63106    1.99999
  1    13      2.63106    1.99999
  1    14      4.88770    0.00005
  1    15      6.79618    0.00000


Fermi level: 3.83218

Gap: 2.074 eV
Transition (v -> c):
  (s=0, k=6, n=13, [0.17, -0.17, 0.00]) -> (s=0, k=0, n=14, [0.00, 0.00, 0.00])
Writing to /Users/gabrielbirnbaum/PycharmProjects/nanolithia/calculators/Li2O2-mp-841-PBE-6x6x6-1000.gpw (mode='')

Timing:                              incl.     excl.
-----------------------------------------------------------
Hamiltonian:                         0.217     0.002   0.0% |
 Atomic:                             0.123     0.001   0.0% |
  XC Correction:                     0.123     0.123   0.0% |
 Calculate atomic Hamiltonians:      0.025     0.025   0.0% |
 Communicate:                        0.000     0.000   0.0% |
 Initialize Hamiltonian:             0.000     0.000   0.0% |
 Poisson:                            0.001     0.001   0.0% |
 XC 3D grid:                         0.065     0.065   0.0% |
LCAO initialization:                18.100     0.031   0.0% |
 LCAO eigensolver:                   1.890     0.002   0.0% |
  Calculate projections:             0.005     0.005   0.0% |
  DenseAtomicCorrection:             0.014     0.014   0.0% |
  Distribute overlap matrix:         0.001     0.001   0.0% |
  Orbital Layouts:                   0.028     0.028   0.0% |
  Potential matrix:                  1.796     1.796   0.4% |
  Sum over cells:                    0.044     0.044   0.0% |
 LCAO to grid:                      14.699    14.699   3.0% ||
 Set positions (LCAO WFS):           1.480     0.210   0.0% |
  Basic WFS set positions:           0.001     0.001   0.0% |
  Basis functions set positions:     0.000     0.000   0.0% |
  P tci:                             0.554     0.554   0.1% |
  ST tci:                            0.677     0.677   0.1% |
  mktci:                             0.038     0.038   0.0% |
PWDescriptor:                        0.063     0.063   0.0% |
SCF-cycle:                         263.626     0.242   0.1% |
 Davidson:                         237.237    17.423   3.6% ||
  Apply H:                          51.430    50.910  10.5% |---|
   HMM T:                            0.521     0.521   0.1% |
  Subspace diag:                    55.895     0.064   0.0% |
   calc_h_matrix:                   54.396     1.081   0.2% |
    Apply H:                        53.315    52.865  10.9% |---|
     HMM T:                          0.449     0.449   0.1% |
   diagonalize:                      0.219     0.219   0.0% |
   rotate_psi:                       1.216     1.216   0.3% |
  calc. matrices:                  109.041     6.514   1.3% ||
   Apply H:                        102.526   101.419  21.0% |-------|
    HMM T:                           1.107     1.107   0.2% |
  diagonalize:                       1.024     1.024   0.2% |
  rotate_psi:                        2.423     2.423   0.5% |
 Density:                           22.960     0.000   0.0% |
  Atomic density matrices:           0.097     0.097   0.0% |
  Mix:                               0.617     0.617   0.1% |
  Multipole moments:                 0.002     0.002   0.0% |
  Pseudo density:                   22.244    22.205   4.6% |-|
   Symmetrize density:               0.039     0.039   0.0% |
 Hamiltonian:                        2.859     0.029   0.0% |
  Atomic:                            1.648     0.009   0.0% |
   XC Correction:                    1.639     1.639   0.3% |
  Calculate atomic Hamiltonians:     0.272     0.272   0.1% |
  Communicate:                       0.000     0.000   0.0% |
  Poisson:                           0.010     0.010   0.0% |
  XC 3D grid:                        0.899     0.899   0.2% |
 Orthonormalize:                     0.328     0.004   0.0% |
  calc_s_matrix:                     0.047     0.047   0.0% |
  inverse-cholesky:                  0.005     0.005   0.0% |
  projections:                       0.231     0.231   0.0% |
  rotate_psi_s:                      0.041     0.041   0.0% |
Set symmetry:                        0.007     0.007   0.0% |
Other:                             201.109   201.109  41.6% |----------------|
-----------------------------------------------------------
Total:                                       483.122 100.0%

Date: Wed Aug  3 19:17:38 2022
