
  ___ ___ ___ _ _ _  
 |   |   |_  | | | | 
 | | | | | . | | | | 
 |__ |  _|___|_____|  22.1.0
 |___|_|             

User:   gabrielbirnbaum@Gabriels-MacBook-Pro.local
Date:   Mon Jul 25 07:49:46 2022
Arch:   x86_64
Pid:    69738
Python: 3.9.13
gpaw:   /Users/gabrielbirnbaum/PycharmProjects/nanolithia/venv/lib/python3.9/site-packages/gpaw
_gpaw:  /Users/gabrielbirnbaum/PycharmProjects/nanolithia/venv/lib/python3.9/site-packages/
        _gpaw.cpython-39-darwin.so
ase:    /Users/gabrielbirnbaum/PycharmProjects/nanolithia/venv/lib/python3.9/site-packages/ase (version 3.22.1)
numpy:  /Users/gabrielbirnbaum/PycharmProjects/nanolithia/venv/lib/python3.9/site-packages/numpy (version 1.23.0)
scipy:  /Users/gabrielbirnbaum/PycharmProjects/nanolithia/venv/lib/python3.9/site-packages/scipy (version 1.8.1)
libxc:  5.2.3
units:  Angstrom and eV
cores: 1
OpenMP: False
OMP_NUM_THREADS: 1

Input parameters:
  convergence: {density: 0.001,
                eigenstates: 0.0001,
                energy: 0.0002}
  kpts: {gamma: True,
         size: (8, 8, 8)}
  mode: {ecut: 600.0,
         name: pw}
  setups: {O: :p,0.76,0}
  spinpol: False

System changes: positions, numbers, cell, pbc, initial_charges, initial_magmoms 

Initialize ...

Li-setup:
  name: Lithium
  id: b73562207f97a71b6967473b66fe8b65
  Z: 3.0
  valence: 1
  core: 2
  charge: 0.0
  file: /Users/gabrielbirnbaum/dft_learning/DIR/gpaw-setups-0.9.20000/Li.LDA.gz
  compensation charges: gauss, rc=0.33, lmax=2
  cutoffs: 1.91(filt), 2.55(core),
  valence states:
                energy  radius
    2s(1.00)    -2.874   1.058
    2p(0.00)    -1.126   1.058
    *s          24.338   1.058

  Using partial waves for Li as LCAO basis

O-setup:
  name: Oxygen
  id: 9b9d51c344dea68c822856295a461509
  Z: 8.0
  valence: 6
  core: 2
  charge: 0.0
  Hubbard U: 0.760000 eV (l=1, scale=False)
  file: /Users/gabrielbirnbaum/dft_learning/DIR/gpaw-setups-0.9.20000/O.LDA.gz
  compensation charges: gauss, rc=0.21, lmax=2
  cutoffs: 1.17(filt), 0.83(core),
  valence states:
                energy  radius
    2s(2.00)   -23.752   0.688
    2p(4.00)    -9.195   0.598
    *s           3.459   0.688
    *p          18.016   0.598
    *d           0.000   0.619

  Using partial waves for O as LCAO basis

Reference energy: -8910.067456

Spin-paired calculation

Convergence criteria:
 Maximum [total energy] change in last 3 cyles: 0.0002 eV / electron
 Maximum integral of absolute [dens]ity change: 0.001 electrons / valence electron
 Maximum integral of absolute [eigenst]ate change: 0.0001 eV^2 / valence electron
 Maximum number of scf [iter]ations: 333
 (Square brackets indicate name in SCF output, whereas a 'c' in
 the SCF output indicates the quantity has converged.)

Symmetries present (total): 4

  ( 1  0  0)  ( 0  1  0)  ( 0 -1  0)  (-1  0  0)
  ( 0  1  0)  ( 1  0  0)  (-1  0  0)  ( 0 -1  0)
  ( 0  0  1)  ( 0  0 -1)  ( 0  0  1)  ( 0  0 -1)

512 k-points: 8 x 8 x 8 Monkhorst-Pack grid + [1/16,1/16,1/16]
150 k-points in the irreducible part of the Brillouin zone
       k-points in crystal coordinates                weights
   0:     0.00000000    0.00000000    0.00000000          1/512
   1:     0.00000000    0.00000000    0.12500000          2/512
   2:     0.00000000    0.00000000    0.25000000          2/512
   3:     0.00000000    0.00000000    0.37500000          2/512
   4:     0.00000000    0.00000000    0.50000000          1/512
   5:     0.12500000   -0.12500000   -0.37500000          2/512
   6:     0.12500000   -0.12500000   -0.25000000          2/512
   7:     0.12500000   -0.12500000   -0.12500000          2/512
   8:     0.12500000   -0.12500000    0.00000000          2/512
   9:     0.12500000   -0.12500000    0.12500000          2/512
          ...
 149:     0.50000000    0.50000000    0.50000000          1/512

Wave functions: Plane wave expansion
  Cutoff energy: 600.000 eV
  Number of coefficients (min, max): 2230, 2273
  Pulay-stress correction: 0.000000 eV/Ang^3 (de/decut=0.000000)
  Using Numpy's FFT
  ScaLapack parameters: grid=1x1, blocksize=None
  Wavefunction extrapolation:
    Improved wavefunction reuse through dual PAW basis 

Occupation numbers: Fermi-Dirac: width=0.1000 eV
 

Eigensolver
   Davidson(niter=2) 

Densities:
  Coarse grid: 18*18*45 grid
  Fine grid: 36*36*90 grid
  Total Charge: 0.000000 

Density mixing:
  Method: separate
  Backend: pulay
  Linear mixing parameter: 0.05
  Mixing with 5 old densities
  Damping of long wave oscillations: 50 

Hamiltonian:
  XC and Coulomb potentials evaluated on a 36*36*90 grid
  Using the LDA Exchange-Correlation functional
  External potential:
    NoExternalPotential
 

Memory estimate:
  Process memory now: 808.47 MiB
  Calculator: 172.22 MiB
    Density: 6.99 MiB
      Arrays: 2.89 MiB
      Localized functions: 2.98 MiB
      Mixer: 1.11 MiB
    Hamiltonian: 1.96 MiB
      Arrays: 1.89 MiB
      XC: 0.00 MiB
      Poisson: 0.00 MiB
      vbar: 0.07 MiB
    Wavefunctions: 163.27 MiB
      Arrays psit_nG: 109.25 MiB
      Eigensolver: 0.97 MiB
      Projections: 3.46 MiB
      Projectors: 43.83 MiB
      PW-descriptor: 5.76 MiB

Total number of cores used: 1

Number of atoms: 8
Number of atomic orbitals: 32
Number of bands in calculation: 21
Number of valence electrons: 28
Bands to converge: occupied

... initialized

Initializing position-dependent things.

Density initialized from atomic densities
Creating initial wave functions:
  21 bands from LCAO basis set

                      
                      
                      
                      
             O        
                      
           LiO        
                      
        Li            
                      
           O Li       
                      
           O          
        Li            
                      
                      
                      
                      

Positions:
   0 Li     0.000000    0.000000    3.851761    ( 0.0000,  0.0000,  0.0000)
   1 Li     0.000000    0.000000    0.000000    ( 0.0000,  0.0000,  0.0000)
   2 Li     1.590181   -0.918093    5.777642    ( 0.0000,  0.0000,  0.0000)
   3 Li     1.590181    0.918093    1.925881    ( 0.0000,  0.0000,  0.0000)
   4 O      1.590181   -0.918093    1.150213    ( 0.0000,  0.0000,  0.0000)
   5 O      1.590181    0.918093    5.001974    ( 0.0000,  0.0000,  0.0000)
   6 O      1.590181    0.918093    6.553309    ( 0.0000,  0.0000,  0.0000)
   7 O      1.590181   -0.918093    2.701548    ( 0.0000,  0.0000,  0.0000)

Unit cell:
           periodic     x           y           z      points  spacing
  1. axis:    yes    1.590181   -2.754274    0.000000    18     0.1530
  2. axis:    yes    1.590181    2.754274    0.000000    18     0.1530
  3. axis:    yes    0.000000    0.000000    7.703522    45     0.1712

  Lengths:   3.180362   3.180362   7.703522
  Angles:   90.000000  90.000000 119.999995

Effective grid spacing dv^(1/3) = 0.1666

     iter     time        total  log10-change:
                         energy  eigst   dens
iter:   1 07:50:32   -42.319175
iter:   2 07:50:56   -42.133602  -1.65  -0.90
iter:   3 07:51:23   -41.232189  -1.38  -0.94
iter:   4 07:51:47   -41.497268  -1.36  -1.27
iter:   5 07:52:11   -41.070468  -1.49  -1.34
iter:   6 07:52:34   -41.071250  -3.32  -2.14
iter:   7 07:52:58   -41.100765  -2.36  -2.15
iter:   8 07:53:21   -41.066480  -2.78  -1.87
iter:   9 07:53:46   -41.065909  -4.12c -2.47
iter:  10 07:54:10   -41.066499c -3.42  -2.58
iter:  11 07:54:34   -41.065347c -4.44c -2.65
iter:  12 07:54:55   -41.065266c -4.86c -3.19c

Converged after 12 iterations.

Dipole moment: (0.000000, -0.000000, -0.000000) |e|*Ang

Energy contributions relative to reference atoms: (reference = -8910.067456)

Kinetic:        +37.614005
Potential:      -36.515255
External:        +0.000000
XC:             -42.780603
Entropy (-ST):   -0.000013
Local:           +0.616593
--------------------------
Free energy:    -41.065272
Extrapolated:   -41.065266

Showing only first 2 kpts
 Kpt  Band  Eigenvalues  Occupancy
  0    12      2.29997    1.99997
  0    13      2.30001    1.99997
  0    14      4.25612    0.00048
  0    15      6.48805    0.00000

  1    12      2.29068    1.99998
  1    13      2.29072    1.99998
  1    14      4.35010    0.00019
  1    15      6.39534    0.00000


Fermi level: 3.42233

Gap: 1.940 eV
Transition (v -> c):
  (s=0, k=16, n=13, [0.12, 0.00, 0.00]) -> (s=0, k=0, n=14, [0.00, 0.00, 0.00])
Timing:                              incl.     excl.
-----------------------------------------------------------
Hamiltonian:                         0.071     0.001   0.0% |
 Atomic:                             0.045     0.002   0.0% |
  XC Correction:                     0.043     0.043   0.0% |
 Calculate atomic Hamiltonians:      0.011     0.011   0.0% |
 Communicate:                        0.000     0.000   0.0% |
 Initialize Hamiltonian:             0.000     0.000   0.0% |
 Poisson:                            0.000     0.000   0.0% |
 XC 3D grid:                         0.013     0.013   0.0% |
LCAO initialization:                21.396     0.041   0.0% |
 LCAO eigensolver:                   1.031     0.005   0.0% |
  Calculate projections:             0.010     0.010   0.0% |
  DenseAtomicCorrection:             0.032     0.032   0.0% |
  Distribute overlap matrix:         0.003     0.003   0.0% |
  Orbital Layouts:                   0.069     0.069   0.0% |
  Potential matrix:                  0.785     0.785   0.3% |
  Sum over cells:                    0.128     0.128   0.0% |
 LCAO to grid:                      17.145    17.145   5.5% |-|
 Set positions (LCAO WFS):           3.180     0.417   0.1% |
  Basic WFS set positions:           0.001     0.001   0.0% |
  Basis functions set positions:     0.000     0.000   0.0% |
  P tci:                             1.211     1.211   0.4% |
  ST tci:                            1.511     1.511   0.5% |
  mktci:                             0.039     0.039   0.0% |
PWDescriptor:                        0.089     0.089   0.0% |
SCF-cycle:                         286.217     0.458   0.1% |
 Davidson:                         260.675    21.847   7.1% |--|
  Apply H:                          56.352    55.569  18.0% |------|
   HMM T:                            0.784     0.784   0.3% |
  Subspace diag:                    59.132     0.134   0.0% |
   calc_h_matrix:                   57.161     1.327   0.4% |
    Apply H:                        55.835    55.099  17.8% |------|
     HMM T:                          0.735     0.735   0.2% |
   diagonalize:                      0.512     0.512   0.2% |
   rotate_psi:                       1.324     1.324   0.4% |
  calc. matrices:                  118.553     7.284   2.4% ||
   Apply H:                        111.269   109.452  35.4% |-------------|
    HMM T:                           1.817     1.817   0.6% |
  diagonalize:                       2.305     2.305   0.7% |
  rotate_psi:                        2.486     2.486   0.8% |
 Density:                           23.505     0.000   0.0% |
  Atomic density matrices:           0.203     0.203   0.1% |
  Mix:                               0.293     0.293   0.1% |
  Multipole moments:                 0.002     0.002   0.0% |
  Pseudo density:                   23.007    22.990   7.4% |--|
   Symmetrize density:               0.017     0.017   0.0% |
 Hamiltonian:                        1.048     0.012   0.0% |
  Atomic:                            0.682     0.033   0.0% |
   XC Correction:                    0.649     0.649   0.2% |
  Calculate atomic Hamiltonians:     0.189     0.189   0.1% |
  Communicate:                       0.000     0.000   0.0% |
  Poisson:                           0.004     0.004   0.0% |
  XC 3D grid:                        0.160     0.160   0.1% |
 Orthonormalize:                     0.531     0.012   0.0% |
  calc_s_matrix:                     0.154     0.154   0.0% |
  inverse-cholesky:                  0.014     0.014   0.0% |
  projections:                       0.297     0.297   0.1% |
  rotate_psi_s:                      0.054     0.054   0.0% |
Set symmetry:                        0.010     0.010   0.0% |
Other:                               1.152     1.152   0.4% |
-----------------------------------------------------------
Total:                                       308.935 100.0%

Memory usage: 827.66 MiB
Date: Mon Jul 25 07:54:55 2022
