
  ___ ___ ___ _ _ _  
 |   |   |_  | | | | 
 | | | | | . | | | | 
 |__ |  _|___|_____|  22.1.0
 |___|_|             

User:   gabrielbirnbaum@Gabriels-MacBook-Pro.local
Date:   Wed Aug  3 19:09:35 2022
Arch:   x86_64
Pid:    19264
Python: 3.9.13
gpaw:   /Users/gabrielbirnbaum/PycharmProjects/nanolithia/venv/lib/python3.9/site-packages/gpaw
_gpaw:  /Users/gabrielbirnbaum/PycharmProjects/nanolithia/venv/lib/python3.9/site-packages/
        _gpaw.cpython-39-darwin.so
ase:    /Users/gabrielbirnbaum/PycharmProjects/nanolithia/venv/lib/python3.9/site-packages/ase (version 3.22.1)
numpy:  /Users/gabrielbirnbaum/PycharmProjects/nanolithia/venv/lib/python3.9/site-packages/numpy (version 1.23.0)
scipy:  /Users/gabrielbirnbaum/PycharmProjects/nanolithia/venv/lib/python3.9/site-packages/scipy (version 1.8.1)
libxc:  5.2.3
units:  Angstrom and eV
cores: 1
OpenMP: False
OMP_NUM_THREADS: 1

Input parameters:
  convergence: {density: 0.001,
                eigenstates: 0.0001,
                energy: 0.0002}
  kpts: {gamma: True,
         size: (8, 8, 8)}
  mode: {ecut: 1000.0,
         name: pw}
  spinpol: False
  xc: PBE

Input parameters:
  nbands: 20

System changes: positions, numbers, cell, pbc, initial_charges, initial_magmoms 

Initialize ...

Li-setup:
  name: Lithium
  id: 830b4218f175192f93f959cfc0aad614
  Z: 3.0
  valence: 1
  core: 2
  charge: 0.0
  file: /Users/gabrielbirnbaum/dft_learning/DIR/gpaw-setups-0.9.20000/Li.PBE.gz
  compensation charges: gauss, rc=0.33, lmax=2
  cutoffs: 1.91(filt), 2.55(core),
  valence states:
                energy  radius
    2s(1.00)    -2.874   1.058
    2p(0.00)    -1.090   1.058
    *s          24.337   1.058

  Using partial waves for Li as LCAO basis

O-setup:
  name: Oxygen
  id: 32ecd46bf208036f09c70b0ec9a88b78
  Z: 8.0
  valence: 6
  core: 2
  charge: 0.0
  file: /Users/gabrielbirnbaum/dft_learning/DIR/gpaw-setups-0.9.20000/O.PBE.gz
  compensation charges: gauss, rc=0.21, lmax=2
  cutoffs: 1.17(filt), 0.83(core),
  valence states:
                energy  radius
    2s(2.00)   -23.961   0.688
    2p(4.00)    -9.029   0.598
    *s           3.251   0.688
    *p          18.182   0.598
    *d           0.000   0.619

  Using partial waves for O as LCAO basis

Reference energy: -2446.427942

Spin-paired calculation

Convergence criteria:
 Maximum [total energy] change in last 3 cyles: 0.0002 eV / electron
 Maximum integral of absolute [dens]ity change: 0.001 electrons / valence electron
 Maximum integral of absolute [eigenst]ate change: 0.0001 eV^2 / valence electron
 Maximum number of scf [iter]ations: 333
 (Square brackets indicate name in SCF output, whereas a 'c' in
 the SCF output indicates the quantity has converged.)

Symmetries present (total): 48

  ( 1  0  0)  ( 1  0  0)  ( 1  0  0)  ( 1  0  0)  ( 1  0 -1)  ( 1  0 -1)
  ( 1  0 -1)  ( 1 -1  0)  ( 0  1  0)  ( 0  0  1)  ( 1  0  0)  ( 1 -1  0)
  ( 1 -1  0)  ( 1  0 -1)  ( 0  0  1)  ( 0  1  0)  ( 1 -1  0)  ( 1  0  0)

  ( 1  0 -1)  ( 1  0 -1)  ( 1 -1  0)  ( 1 -1  0)  ( 1 -1  0)  ( 1 -1  0)
  ( 0  1 -1)  ( 0  0 -1)  ( 1  0  0)  ( 1  0 -1)  ( 0 -1  1)  ( 0 -1  0)
  ( 0  0 -1)  ( 0  1 -1)  ( 1  0 -1)  ( 1  0  0)  ( 0 -1  0)  ( 0 -1  1)

  ( 0  1  0)  ( 0  1  0)  ( 0  1  0)  ( 0  1  0)  ( 0  1 -1)  ( 0  1 -1)
  ( 1  0  0)  ( 0  1 -1)  ( 0  0  1)  (-1  1  0)  ( 1  0 -1)  ( 0  1  0)
  ( 0  0  1)  (-1  1  0)  ( 1  0  0)  ( 0  1 -1)  ( 0  0 -1)  (-1  1  0)

  ( 0  1 -1)  ( 0  1 -1)  ( 0  0  1)  ( 0  0  1)  ( 0  0  1)  ( 0  0  1)
  ( 0  0 -1)  (-1  1  0)  ( 1  0  0)  ( 0  1  0)  ( 0 -1  1)  (-1  0  1)
  ( 1  0 -1)  ( 0  1  0)  ( 0  1  0)  ( 1  0  0)  (-1  0  1)  ( 0 -1  1)

  ( 0  0 -1)  ( 0  0 -1)  ( 0  0 -1)  ( 0  0 -1)  ( 0 -1  1)  ( 0 -1  1)
  ( 1  0 -1)  ( 0  1 -1)  ( 0 -1  0)  (-1  0  0)  ( 1 -1  0)  ( 0  0  1)
  ( 0  1 -1)  ( 1  0 -1)  (-1  0  0)  ( 0 -1  0)  ( 0 -1  0)  (-1  0  1)

  ( 0 -1  1)  ( 0 -1  1)  ( 0 -1  0)  ( 0 -1  0)  ( 0 -1  0)  ( 0 -1  0)
  ( 0 -1  0)  (-1  0  1)  ( 1 -1  0)  ( 0  0 -1)  ( 0 -1  1)  (-1  0  0)
  ( 1 -1  0)  ( 0  0  1)  ( 0 -1  1)  (-1  0  0)  ( 1 -1  0)  ( 0  0 -1)

  (-1  1  0)  (-1  1  0)  (-1  1  0)  (-1  1  0)  (-1  0  1)  (-1  0  1)
  ( 0  1  0)  ( 0  1 -1)  (-1  0  1)  (-1  0  0)  ( 0  0  1)  ( 0 -1  1)
  ( 0  1 -1)  ( 0  1  0)  (-1  0  0)  (-1  0  1)  ( 0 -1  1)  ( 0  0  1)

  (-1  0  1)  (-1  0  1)  (-1  0  0)  (-1  0  0)  (-1  0  0)  (-1  0  0)
  (-1  1  0)  (-1  0  0)  ( 0  0 -1)  ( 0 -1  0)  (-1  1  0)  (-1  0  1)
  (-1  0  0)  (-1  1  0)  ( 0 -1  0)  ( 0  0 -1)  (-1  0  1)  (-1  1  0)

512 k-points: 8 x 8 x 8 Monkhorst-Pack grid + [1/16,1/16,1/16]
29 k-points in the irreducible part of the Brillouin zone
       k-points in crystal coordinates                weights
   0:     0.00000000    0.00000000    0.00000000          1/512
   1:     0.12500000    0.12500000    0.00000000          6/512
   2:     0.12500000    0.12500000    0.12500000          8/512
   3:     0.25000000    0.12500000    0.12500000         12/512
   4:     0.25000000    0.25000000    0.00000000          6/512
   5:     0.25000000    0.25000000    0.12500000         24/512
   6:     0.25000000    0.25000000    0.25000000          8/512
   7:     0.37500000    0.25000000   -0.37500000         24/512
   8:     0.37500000    0.25000000    0.12500000         24/512
   9:     0.37500000    0.25000000    0.25000000         24/512
          ...
  28:     0.50000000    0.50000000    0.50000000          4/512

Wave functions: Plane wave expansion
  Cutoff energy: 1000.000 eV
  Number of coefficients (min, max): 1772, 1839
  Pulay-stress correction: 0.000000 eV/Ang^3 (de/decut=0.000000)
  Using Numpy's FFT
  ScaLapack parameters: grid=1x1, blocksize=None
  Wavefunction extrapolation:
    Improved wavefunction reuse through dual PAW basis 

Occupation numbers: Fermi-Dirac: width=0.1000 eV
 

Eigensolver
   Davidson(niter=2) 

Densities:
  Coarse grid: 25*25*25 grid
  Fine grid: 50*50*50 grid
  Total Charge: 0.000000 

Density mixing:
  Method: separate
  Backend: pulay
  Linear mixing parameter: 0.05
  Mixing with 5 old densities
  Damping of long wave oscillations: 50 

Hamiltonian:
  XC and Coulomb potentials evaluated on a 50*50*50 grid
  Using the PBE Exchange-Correlation functional
  External potential:
    NoExternalPotential
 

XC parameters: PBE with 2 nearest neighbor stencil

Memory estimate:
  Process memory now: 121.55 MiB
  Calculator: 34.25 MiB
    Density: 6.69 MiB
      Arrays: 3.10 MiB
      Localized functions: 2.40 MiB
      Mixer: 1.19 MiB
    Hamiltonian: 2.08 MiB
      Arrays: 2.03 MiB
      XC: 0.00 MiB
      Poisson: 0.00 MiB
      vbar: 0.06 MiB
    Wavefunctions: 25.48 MiB
      Arrays psit_nG: 16.28 MiB
      Eigensolver: 0.76 MiB
      Projections: 0.20 MiB
      Projectors: 6.83 MiB
      PW-descriptor: 1.41 MiB

Total number of cores used: 1

Number of atoms: 3
Number of atomic orbitals: 12
Number of bands in calculation: 20
Number of valence electrons: 8
Bands to converge: occupied

... initialized

Initializing position-dependent things.

Density initialized from atomic densities
Creating initial wave functions:
  12 bands from LCAO basis set
  8 bands from random numbers

                              
                              
                              
                     Li       
                              
                              
            Li                
                              
       O                      
                              
                              
                              

Positions:
   0 Li     4.941448    2.852946    2.017338    ( 0.0000,  0.0000,  0.0000)
   1 Li     1.647149    0.950982    0.672446    ( 0.0000,  0.0000,  0.0000)
   2 O      0.000000    0.000000    0.000000    ( 0.0000,  0.0000,  0.0000)

Unit cell:
           periodic     x           y           z      points  spacing
  1. axis:    yes    3.294299    0.000000    0.000000    25     0.1076
  2. axis:    yes    1.647149    2.852946    0.000000    25     0.1076
  3. axis:    yes    1.647149    0.950982    2.689784    25     0.1076

  Lengths:   3.294299   3.294299   3.294299
  Angles:   60.000000  60.000000  60.000000

Effective grid spacing dv^(1/3) = 0.1174

     iter     time        total  log10-change:
                         energy  eigst   dens
iter:   1 19:09:41   -15.256640
iter:   2 19:09:44   -15.030422  -2.55  -0.79
iter:   3 19:09:48   -14.488230  -2.27  -0.83
iter:   4 19:09:51   -14.459219  -3.17  -1.05
iter:   5 19:09:55   -14.438231  -2.84  -1.30
iter:   6 19:09:58   -14.438273  -4.97c -2.23
iter:   7 19:10:02   -14.438318c -5.46c -2.23
iter:   8 19:10:05   -14.439204c -4.39c -2.24
iter:   9 19:10:09   -14.439204c -6.27c -3.38c

Converged after 9 iterations.

Dipole moment: (0.000000, -0.000000, -0.000000) |e|*Ang

Energy contributions relative to reference atoms: (reference = -2446.427942)

Kinetic:        +16.035690
Potential:      -14.767809
External:        +0.000000
XC:             -15.928905
Entropy (-ST):   -0.000000
Local:           +0.221820
--------------------------
Free energy:    -14.439204
Extrapolated:   -14.439204

Showing only first 2 kpts
 Kpt  Band  Eigenvalues  Occupancy
  0     2      1.22064    2.00000
  0     3      1.22064    2.00000
  0     4      6.28637    0.00000
  0     5     13.02977    0.00000

  1     2      0.99793    2.00000
  1     3      0.99793    2.00000
  1     4      6.77192    0.00000
  1     5     13.16455    0.00000


Fermi level: 3.30235

Gap: 4.920 eV
Transition (v -> c):
  (s=0, k=0, n=3, [0.00, 0.00, 0.00]) -> (s=0, k=24, n=4, [0.50, 0.50, 0.00])
Writing to /Users/gabrielbirnbaum/PycharmProjects/nanolithia/calculators/Li2O-mp-1960-PBE-8x8x8-1000.gpw (mode='')

Timing:                              incl.     excl.
-----------------------------------------------------------
Hamiltonian:                         0.091     0.001   0.0% |
 Atomic:                             0.045     0.001   0.0% |
  XC Correction:                     0.044     0.044   0.0% |
 Calculate atomic Hamiltonians:      0.005     0.005   0.0% |
 Communicate:                        0.000     0.000   0.0% |
 Initialize Hamiltonian:             0.000     0.000   0.0% |
 Poisson:                            0.001     0.001   0.0% |
 XC 3D grid:                         0.040     0.040   0.0% |
LCAO initialization:                 3.005     0.052   0.0% |
 LCAO eigensolver:                   0.794     0.001   0.0% |
  Calculate projections:             0.000     0.000   0.0% |
  DenseAtomicCorrection:             0.002     0.002   0.0% |
  Distribute overlap matrix:         0.000     0.000   0.0% |
  Orbital Layouts:                   0.012     0.012   0.0% |
  Potential matrix:                  0.771     0.771   0.2% |
  Sum over cells:                    0.007     0.007   0.0% |
 LCAO to grid:                       1.873     1.873   0.4% |
 Set positions (LCAO WFS):           0.286     0.047   0.0% |
  Basic WFS set positions:           0.004     0.004   0.0% |
  Basis functions set positions:     0.000     0.000   0.0% |
  P tci:                             0.073     0.073   0.0% |
  ST tci:                            0.132     0.132   0.0% |
  mktci:                             0.030     0.030   0.0% |
PWDescriptor:                        0.011     0.011   0.0% |
SCF-cycle:                          30.451     0.026   0.0% |
 Davidson:                          26.525     0.931   0.2% |
  Apply H:                           6.268     6.212   1.3% ||
   HMM T:                            0.056     0.056   0.0% |
  Subspace diag:                     6.607     0.013   0.0% |
   calc_h_matrix:                    6.439     0.092   0.0% |
    Apply H:                         6.347     6.288   1.3% ||
     HMM T:                          0.059     0.059   0.0% |
   diagonalize:                      0.048     0.048   0.0% |
   rotate_psi:                       0.106     0.106   0.0% |
  calc. matrices:                   12.304     0.573   0.1% |
   Apply H:                         11.731    11.624   2.4% ||
    HMM T:                           0.107     0.107   0.0% |
  diagonalize:                       0.223     0.223   0.0% |
  rotate_psi:                        0.193     0.193   0.0% |
 Density:                            3.022     0.000   0.0% |
  Atomic density matrices:           0.016     0.016   0.0% |
  Mix:                               0.093     0.093   0.0% |
  Multipole moments:                 0.001     0.001   0.0% |
  Pseudo density:                    2.912     2.785   0.6% |
   Symmetrize density:               0.128     0.128   0.0% |
 Hamiltonian:                        0.842     0.008   0.0% |
  Atomic:                            0.483     0.004   0.0% |
   XC Correction:                    0.479     0.479   0.1% |
  Calculate atomic Hamiltonians:     0.037     0.037   0.0% |
  Communicate:                       0.000     0.000   0.0% |
  Poisson:                           0.002     0.002   0.0% |
  XC 3D grid:                        0.311     0.311   0.1% |
 Orthonormalize:                     0.037     0.002   0.0% |
  calc_s_matrix:                     0.011     0.011   0.0% |
  inverse-cholesky:                  0.004     0.004   0.0% |
  projections:                       0.014     0.014   0.0% |
  rotate_psi_s:                      0.005     0.005   0.0% |
Set symmetry:                        0.038     0.038   0.0% |
Other:                             449.528   449.528  93.0% |------------------------------------|
-----------------------------------------------------------
Total:                                       483.124 100.0%

Date: Wed Aug  3 19:17:38 2022
