
  ___ ___ ___ _ _ _  
 |   |   |_  | | | | 
 | | | | | . | | | | 
 |__ |  _|___|_____|  22.1.0
 |___|_|             

User:   gabrielbirnbaum@Gabriels-MacBook-Pro.local
Date:   Sat Aug  6 19:05:07 2022
Arch:   x86_64
Pid:    87230
Python: 3.9.13
gpaw:   /Users/gabrielbirnbaum/PycharmProjects/nanolithia/venv/lib/python3.9/site-packages/gpaw
_gpaw:  /Users/gabrielbirnbaum/PycharmProjects/nanolithia/venv/lib/python3.9/site-packages/
        _gpaw.cpython-39-darwin.so
ase:    /Users/gabrielbirnbaum/PycharmProjects/nanolithia/venv/lib/python3.9/site-packages/ase (version 3.22.1)
numpy:  /Users/gabrielbirnbaum/PycharmProjects/nanolithia/venv/lib/python3.9/site-packages/numpy (version 1.23.0)
scipy:  /Users/gabrielbirnbaum/PycharmProjects/nanolithia/venv/lib/python3.9/site-packages/scipy (version 1.8.1)
libxc:  5.2.3
units:  Angstrom and eV
cores: 1
OpenMP: False
OMP_NUM_THREADS: 1

Input parameters:
  convergence: {density: 0.001,
                eigenstates: 0.0001,
                energy: 0.0002}
  kpts: {gamma: True,
         size: (6, 6, 6)}
  mode: {ecut: 555.0,
         name: pw}
  spinpol: False
  xc: PBE

System changes: positions, numbers, cell, pbc, initial_charges, initial_magmoms 

Initialize ...

Li-setup:
  name: Lithium
  id: 830b4218f175192f93f959cfc0aad614
  Z: 3.0
  valence: 1
  core: 2
  charge: 0.0
  file: /Users/gabrielbirnbaum/dft_learning/DIR/gpaw-setups-0.9.20000/Li.PBE.gz
  compensation charges: gauss, rc=0.33, lmax=2
  cutoffs: 1.91(filt), 2.55(core),
  valence states:
                energy  radius
    2s(1.00)    -2.874   1.058
    2p(0.00)    -1.090   1.058
    *s          24.337   1.058

  Using partial waves for Li as LCAO basis

O-setup:
  name: Oxygen
  id: 32ecd46bf208036f09c70b0ec9a88b78
  Z: 8.0
  valence: 6
  core: 2
  charge: 0.0
  file: /Users/gabrielbirnbaum/dft_learning/DIR/gpaw-setups-0.9.20000/O.PBE.gz
  compensation charges: gauss, rc=0.21, lmax=2
  cutoffs: 1.17(filt), 0.83(core),
  valence states:
                energy  radius
    2s(2.00)   -23.961   0.688
    2p(4.00)    -9.029   0.598
    *s           3.251   0.688
    *p          18.182   0.598
    *d           0.000   0.619

  Using partial waves for O as LCAO basis

Reference energy: -8974.560486

Spin-paired calculation

Convergence criteria:
 Maximum [total energy] change in last 3 cyles: 0.0002 eV / electron
 Maximum integral of absolute [dens]ity change: 0.001 electrons / valence electron
 Maximum integral of absolute [eigenst]ate change: 0.0001 eV^2 / valence electron
 Maximum number of scf [iter]ations: 333
 (Square brackets indicate name in SCF output, whereas a 'c' in
 the SCF output indicates the quantity has converged.)

Symmetries present (total): 4

  ( 1  0  0)  ( 0  1  0)  ( 0 -1  0)  (-1  0  0)
  ( 0  1  0)  ( 1  0  0)  (-1  0  0)  ( 0 -1  0)
  ( 0  0  1)  ( 0  0 -1)  ( 0  0  1)  ( 0  0 -1)

216 k-points: 6 x 6 x 6 Monkhorst-Pack grid + [1/12,1/12,1/12]
68 k-points in the irreducible part of the Brillouin zone
       k-points in crystal coordinates                weights
   0:     0.00000000    0.00000000    0.00000000          1/216
   1:     0.00000000    0.00000000    0.16666667          2/216
   2:     0.00000000    0.00000000    0.33333333          2/216
   3:     0.00000000    0.00000000    0.50000000          1/216
   4:     0.16666667   -0.16666667   -0.33333333          2/216
   5:     0.16666667   -0.16666667   -0.16666667          2/216
   6:     0.16666667   -0.16666667    0.00000000          2/216
   7:     0.16666667   -0.16666667    0.16666667          2/216
   8:     0.16666667   -0.16666667    0.33333333          2/216
   9:     0.16666667   -0.16666667    0.50000000          2/216
          ...
  67:     0.50000000    0.50000000    0.50000000          1/216

Wave functions: Plane wave expansion
  Cutoff energy: 555.000 eV
  Number of coefficients (min, max): 1949, 2040
  Pulay-stress correction: 0.000000 eV/Ang^3 (de/decut=0.000000)
  Using Numpy's FFT
  ScaLapack parameters: grid=1x1, blocksize=None
  Wavefunction extrapolation:
    Improved wavefunction reuse through dual PAW basis 

Occupation numbers: Fermi-Dirac: width=0.1000 eV
 

Eigensolver
   Davidson(niter=2) 

Densities:
  Coarse grid: 18*18*42 grid
  Fine grid: 36*36*84 grid
  Total Charge: 0.000000 

Density mixing:
  Method: separate
  Backend: pulay
  Linear mixing parameter: 0.05
  Mixing with 5 old densities
  Damping of long wave oscillations: 50 

Hamiltonian:
  XC and Coulomb potentials evaluated on a 36*36*84 grid
  Using the PBE Exchange-Correlation functional
  External potential:
    NoExternalPotential
 

XC parameters: PBE with 2 nearest neighbor stencil

Memory estimate:
  Process memory now: 130.06 MiB
  Calculator: 75.43 MiB
    Density: 6.40 MiB
      Arrays: 2.70 MiB
      Localized functions: 2.66 MiB
      Mixer: 1.04 MiB
    Hamiltonian: 1.83 MiB
      Arrays: 1.76 MiB
      XC: 0.00 MiB
      Poisson: 0.00 MiB
      vbar: 0.07 MiB
    Wavefunctions: 67.20 MiB
      Arrays psit_nG: 44.45 MiB
      Eigensolver: 0.88 MiB
      Projections: 1.57 MiB
      Projectors: 17.67 MiB
      PW-descriptor: 2.64 MiB

Total number of cores used: 1

Number of atoms: 8
Number of atomic orbitals: 32
Number of bands in calculation: 21
Number of valence electrons: 28
Bands to converge: occupied

... initialized

Initializing position-dependent things.

Density initialized from atomic densities
Creating initial wave functions:
  21 bands from LCAO basis set

                      
                      
                      
                      
             O        
                      
           LiO        
                      
        Li            
                      
           O Li       
                      
           O          
        Li            
                      
                      
                      
                      

Positions:
   0 Li     0.000000    0.000000    3.851761    ( 0.0000,  0.0000,  0.0000)
   1 Li     0.000000    0.000000    0.000000    ( 0.0000,  0.0000,  0.0000)
   2 Li     1.590181   -0.918093    5.777642    ( 0.0000,  0.0000,  0.0000)
   3 Li     1.590181    0.918093    1.925881    ( 0.0000,  0.0000,  0.0000)
   4 O      1.590181   -0.918093    1.150213    ( 0.0000,  0.0000,  0.0000)
   5 O      1.590181    0.918093    5.001974    ( 0.0000,  0.0000,  0.0000)
   6 O      1.590181    0.918093    6.553309    ( 0.0000,  0.0000,  0.0000)
   7 O      1.590181   -0.918093    2.701548    ( 0.0000,  0.0000,  0.0000)

Unit cell:
           periodic     x           y           z      points  spacing
  1. axis:    yes    1.590181   -2.754274    0.000000    18     0.1530
  2. axis:    yes    1.590181    2.754274    0.000000    18     0.1530
  3. axis:    yes    0.000000    0.000000    7.703522    42     0.1834

  Lengths:   3.180362   3.180362   7.703522
  Angles:   90.000000  90.000000 119.999995

Effective grid spacing dv^(1/3) = 0.1705

     iter     time        total  log10-change:
                         energy  eigst   dens
iter:   1 19:05:25   -40.186422
iter:   2 19:05:33   -39.970491  -1.67  -0.89
iter:   3 19:05:42   -38.980702  -1.33  -0.92
iter:   4 19:05:52   -39.393435  -1.28  -1.26
iter:   5 19:06:01   -38.875412  -1.62  -1.30
iter:   6 19:06:10   -38.876273  -3.33  -2.06
iter:   7 19:06:21   -38.946231  -2.11  -2.08
iter:   8 19:06:30   -38.889272  -1.98  -1.74
iter:   9 19:06:40   -38.888553  -3.74  -2.02
iter:  10 19:06:50   -38.888286c -5.00c -2.03
iter:  11 19:07:00   -38.873276  -2.59  -2.04
iter:  12 19:07:11   -38.871301  -4.19c -2.55
iter:  13 19:07:21   -38.871297c -4.91c -3.28c

Converged after 13 iterations.

Dipole moment: (0.000000, -0.000000, 0.000000) |e|*Ang

Energy contributions relative to reference atoms: (reference = -8974.560486)

Kinetic:        +38.317513
Potential:      -35.912513
External:        +0.000000
XC:             -41.745412
Entropy (-ST):   -0.000008
Local:           +0.469119
--------------------------
Free energy:    -38.871302
Extrapolated:   -38.871297

Showing only first 2 kpts
 Kpt  Band  Eigenvalues  Occupancy
  0    12      2.65539    1.99998
  0    13      2.65555    1.99998
  0    14      4.71766    0.00028
  0    15      6.97104    0.00000

  1    12      2.64004    1.99999
  1    13      2.64020    1.99999
  1    14      4.87868    0.00006
  1    15      6.80024    0.00000


Fermi level: 3.83142

Gap: 2.059 eV
Transition (v -> c):
  (s=0, k=6, n=13, [0.17, -0.17, 0.00]) -> (s=0, k=0, n=14, [0.00, 0.00, 0.00])
Writing to /Users/gabrielbirnbaum/PycharmProjects/nanolithia/calculators/Li2O2-mp-841-PBE-6x6x6-555.gpw (mode='')

Timing:                              incl.     excl.
-----------------------------------------------------------
Hamiltonian:                         0.180     0.001   0.0% |
 Atomic:                             0.133     0.001   0.0% |
  XC Correction:                     0.132     0.132   0.1% |
 Calculate atomic Hamiltonians:      0.015     0.015   0.0% |
 Communicate:                        0.000     0.000   0.0% |
 Initialize Hamiltonian:             0.000     0.000   0.0% |
 Poisson:                            0.001     0.001   0.0% |
 XC 3D grid:                         0.030     0.030   0.0% |
LCAO initialization:                 9.062     0.041   0.0% |
 LCAO eigensolver:                   0.908     0.003   0.0% |
  Calculate projections:             0.005     0.005   0.0% |
  DenseAtomicCorrection:             0.016     0.016   0.0% |
  Distribute overlap matrix:         0.002     0.002   0.0% |
  Orbital Layouts:                   0.045     0.045   0.0% |
  Potential matrix:                  0.752     0.752   0.6% |
  Sum over cells:                    0.086     0.086   0.1% |
 LCAO to grid:                       6.380     6.380   4.7% |-|
 Set positions (LCAO WFS):           1.734     0.216   0.2% |
  Basic WFS set positions:           0.001     0.001   0.0% |
  Basis functions set positions:     0.000     0.000   0.0% |
  P tci:                             0.652     0.652   0.5% |
  ST tci:                            0.823     0.823   0.6% |
  mktci:                             0.043     0.043   0.0% |
PWDescriptor:                        0.031     0.031   0.0% |
SCF-cycle:                         124.279     0.238   0.2% |
 Davidson:                         110.735     8.047   6.0% |-|
  Apply H:                          24.141    23.907  17.7% |------|
   HMM T:                            0.234     0.234   0.2% |
  Subspace diag:                    25.944     0.055   0.0% |
   calc_h_matrix:                   25.190     0.488   0.4% |
    Apply H:                        24.702    24.456  18.1% |------|
     HMM T:                          0.246     0.246   0.2% |
   diagonalize:                      0.197     0.197   0.1% |
   rotate_psi:                       0.502     0.502   0.4% |
  calc. matrices:                   50.766     2.984   2.2% ||
   Apply H:                         47.782    47.313  35.0% |-------------|
    HMM T:                           0.469     0.469   0.3% |
  diagonalize:                       0.868     0.868   0.6% |
  rotate_psi:                        0.968     0.968   0.7% |
 Density:                           10.865     0.000   0.0% |
  Atomic density matrices:           0.094     0.094   0.1% |
  Mix:                               0.293     0.293   0.2% |
  Multipole moments:                 0.002     0.002   0.0% |
  Pseudo density:                   10.475    10.460   7.7% |--|
   Symmetrize density:               0.015     0.015   0.0% |
 Hamiltonian:                        2.284     0.014   0.0% |
  Atomic:                            1.721     0.011   0.0% |
   XC Correction:                    1.710     1.710   1.3% ||
  Calculate atomic Hamiltonians:     0.170     0.170   0.1% |
  Communicate:                       0.000     0.000   0.0% |
  Poisson:                           0.004     0.004   0.0% |
  XC 3D grid:                        0.376     0.376   0.3% |
 Orthonormalize:                     0.157     0.004   0.0% |
  calc_s_matrix:                     0.030     0.030   0.0% |
  inverse-cholesky:                  0.006     0.006   0.0% |
  projections:                       0.101     0.101   0.1% |
  rotate_psi_s:                      0.016     0.016   0.0% |
Set symmetry:                        0.004     0.004   0.0% |
Other:                               1.573     1.573   1.2% |
-----------------------------------------------------------
Total:                                       135.129 100.0%

Date: Sat Aug  6 19:07:22 2022
