
  ___ ___ ___ _ _ _  
 |   |   |_  | | | | 
 | | | | | . | | | | 
 |__ |  _|___|_____|  22.1.0
 |___|_|             

User:   gabrielbirnbaum@Gabriels-MacBook-Pro.local
Date:   Mon Jul 25 10:52:27 2022
Arch:   x86_64
Pid:    69738
Python: 3.9.13
gpaw:   /Users/gabrielbirnbaum/PycharmProjects/nanolithia/venv/lib/python3.9/site-packages/gpaw
_gpaw:  /Users/gabrielbirnbaum/PycharmProjects/nanolithia/venv/lib/python3.9/site-packages/
        _gpaw.cpython-39-darwin.so
ase:    /Users/gabrielbirnbaum/PycharmProjects/nanolithia/venv/lib/python3.9/site-packages/ase (version 3.22.1)
numpy:  /Users/gabrielbirnbaum/PycharmProjects/nanolithia/venv/lib/python3.9/site-packages/numpy (version 1.23.0)
scipy:  /Users/gabrielbirnbaum/PycharmProjects/nanolithia/venv/lib/python3.9/site-packages/scipy (version 1.8.1)
libxc:  5.2.3
units:  Angstrom and eV
cores: 1
OpenMP: False
OMP_NUM_THREADS: 1

Input parameters:
  convergence: {density: 0.001,
                eigenstates: 0.0001,
                energy: 0.0002}
  kpts: {gamma: True,
         size: (7, 7, 7)}
  mode: {ecut: 575.0,
         name: pw}
  setups: {O: :p,0.76,0}
  spinpol: False

System changes: positions, numbers, cell, pbc, initial_charges, initial_magmoms 

Initialize ...

Li-setup:
  name: Lithium
  id: b73562207f97a71b6967473b66fe8b65
  Z: 3.0
  valence: 1
  core: 2
  charge: 0.0
  file: /Users/gabrielbirnbaum/dft_learning/DIR/gpaw-setups-0.9.20000/Li.LDA.gz
  compensation charges: gauss, rc=0.33, lmax=2
  cutoffs: 1.91(filt), 2.55(core),
  valence states:
                energy  radius
    2s(1.00)    -2.874   1.058
    2p(0.00)    -1.126   1.058
    *s          24.338   1.058

  Using partial waves for Li as LCAO basis

O-setup:
  name: Oxygen
  id: 9b9d51c344dea68c822856295a461509
  Z: 8.0
  valence: 6
  core: 2
  charge: 0.0
  Hubbard U: 0.760000 eV (l=1, scale=False)
  file: /Users/gabrielbirnbaum/dft_learning/DIR/gpaw-setups-0.9.20000/O.LDA.gz
  compensation charges: gauss, rc=0.21, lmax=2
  cutoffs: 1.17(filt), 0.83(core),
  valence states:
                energy  radius
    2s(2.00)   -23.752   0.688
    2p(4.00)    -9.195   0.598
    *s           3.459   0.688
    *p          18.016   0.598
    *d           0.000   0.619

  Using partial waves for O as LCAO basis

Reference energy: -8910.067456

Spin-paired calculation

Convergence criteria:
 Maximum [total energy] change in last 3 cyles: 0.0002 eV / electron
 Maximum integral of absolute [dens]ity change: 0.001 electrons / valence electron
 Maximum integral of absolute [eigenst]ate change: 0.0001 eV^2 / valence electron
 Maximum number of scf [iter]ations: 333
 (Square brackets indicate name in SCF output, whereas a 'c' in
 the SCF output indicates the quantity has converged.)

Symmetries present (total): 4

  ( 1  0  0)  ( 0  1  0)  ( 0 -1  0)  (-1  0  0)
  ( 0  1  0)  ( 1  0  0)  (-1  0  0)  ( 0 -1  0)
  ( 0  0  1)  ( 0  0 -1)  ( 0  0  1)  ( 0  0 -1)

343 k-points: 7 x 7 x 7 Monkhorst-Pack grid
100 k-points in the irreducible part of the Brillouin zone
       k-points in crystal coordinates                weights
   0:     0.00000000    0.00000000    0.00000000          1/343
   1:     0.00000000    0.00000000    0.14285714          2/343
   2:     0.00000000    0.00000000    0.28571429          2/343
   3:     0.00000000    0.00000000    0.42857143          2/343
   4:     0.14285714   -0.14285714   -0.42857143          2/343
   5:     0.14285714   -0.14285714   -0.28571429          2/343
   6:     0.14285714   -0.14285714   -0.14285714          2/343
   7:     0.14285714   -0.14285714    0.00000000          2/343
   8:     0.14285714   -0.14285714    0.14285714          2/343
   9:     0.14285714   -0.14285714    0.28571429          2/343
          ...
  99:     0.42857143    0.42857143    0.42857143          4/343

Wave functions: Plane wave expansion
  Cutoff energy: 575.000 eV
  Number of coefficients (min, max): 2091, 2130
  Pulay-stress correction: 0.000000 eV/Ang^3 (de/decut=0.000000)
  Using Numpy's FFT
  ScaLapack parameters: grid=1x1, blocksize=None
  Wavefunction extrapolation:
    Improved wavefunction reuse through dual PAW basis 

Occupation numbers: Fermi-Dirac: width=0.1000 eV
 

Eigensolver
   Davidson(niter=2) 

Densities:
  Coarse grid: 18*18*45 grid
  Fine grid: 36*36*90 grid
  Total Charge: 0.000000 

Density mixing:
  Method: separate
  Backend: pulay
  Linear mixing parameter: 0.05
  Mixing with 5 old densities
  Damping of long wave oscillations: 50 

Hamiltonian:
  XC and Coulomb potentials evaluated on a 36*36*90 grid
  Using the LDA Exchange-Correlation functional
  External potential:
    NoExternalPotential
 

Memory estimate:
  Process memory now: 1109.23 MiB
  Calculator: 111.45 MiB
    Density: 6.81 MiB
      Arrays: 2.89 MiB
      Localized functions: 2.81 MiB
      Mixer: 1.11 MiB
    Hamiltonian: 1.96 MiB
      Arrays: 1.89 MiB
      XC: 0.00 MiB
      Poisson: 0.00 MiB
      vbar: 0.07 MiB
    Wavefunctions: 102.68 MiB
      Arrays psit_nG: 68.25 MiB
      Eigensolver: 0.91 MiB
      Projections: 2.31 MiB
      Projectors: 27.40 MiB
      PW-descriptor: 3.81 MiB

Total number of cores used: 1

Number of atoms: 8
Number of atomic orbitals: 32
Number of bands in calculation: 21
Number of valence electrons: 28
Bands to converge: occupied

... initialized

Initializing position-dependent things.

Density initialized from atomic densities
Creating initial wave functions:
  21 bands from LCAO basis set

                      
                      
                      
                      
             O        
                      
           LiO        
                      
        Li            
                      
           O Li       
                      
           O          
        Li            
                      
                      
                      
                      

Positions:
   0 Li     0.000000    0.000000    3.851761    ( 0.0000,  0.0000,  0.0000)
   1 Li     0.000000    0.000000    0.000000    ( 0.0000,  0.0000,  0.0000)
   2 Li     1.590181   -0.918093    5.777642    ( 0.0000,  0.0000,  0.0000)
   3 Li     1.590181    0.918093    1.925881    ( 0.0000,  0.0000,  0.0000)
   4 O      1.590181   -0.918093    1.150213    ( 0.0000,  0.0000,  0.0000)
   5 O      1.590181    0.918093    5.001974    ( 0.0000,  0.0000,  0.0000)
   6 O      1.590181    0.918093    6.553309    ( 0.0000,  0.0000,  0.0000)
   7 O      1.590181   -0.918093    2.701548    ( 0.0000,  0.0000,  0.0000)

Unit cell:
           periodic     x           y           z      points  spacing
  1. axis:    yes    1.590181   -2.754274    0.000000    18     0.1530
  2. axis:    yes    1.590181    2.754274    0.000000    18     0.1530
  3. axis:    yes    0.000000    0.000000    7.703522    45     0.1712

  Lengths:   3.180362   3.180362   7.703522
  Angles:   90.000000  90.000000 119.999995

Effective grid spacing dv^(1/3) = 0.1666

     iter     time        total  log10-change:
                         energy  eigst   dens
iter:   1 10:52:58   -42.127817
iter:   2 10:53:13   -41.944664  -1.66  -0.90
iter:   3 10:53:31   -41.046422  -1.40  -0.94
iter:   4 10:53:47   -41.298785  -1.38  -1.28
iter:   5 10:54:02   -40.886308  -1.54  -1.35
iter:   6 10:54:19   -40.886967  -3.36  -2.13
iter:   7 10:54:36   -40.923023  -2.31  -2.15
iter:   8 10:54:52   -40.881931  -2.71  -1.84
iter:   9 10:55:08   -40.881419  -4.10c -2.47
iter:  10 10:55:25   -40.882088c -3.44  -2.59
iter:  11 10:55:42   -40.880851c -4.35c -2.63
iter:  12 10:55:57   -40.880807c -5.08c -3.31c

Converged after 12 iterations.

Dipole moment: (0.000000, -0.000000, -0.000000) |e|*Ang

Energy contributions relative to reference atoms: (reference = -8910.067456)

Kinetic:        +36.287497
Potential:      -35.005557
External:        +0.000000
XC:             -42.691689
Entropy (-ST):   -0.000013
Local:           +0.528949
--------------------------
Free energy:    -40.880814
Extrapolated:   -40.880807

Showing only first 2 kpts
 Kpt  Band  Eigenvalues  Occupancy
  0    12      2.29729    1.99997
  0    13      2.29732    1.99997
  0    14      4.25455    0.00049
  0    15      6.49334    0.00000

  1    12      2.28625    1.99998
  1    13      2.28629    1.99998
  1    14      4.37679    0.00014
  1    15      6.37352    0.00000


Fermi level: 3.42295

Gap: 1.943 eV
Transition (v -> c):
  (s=0, k=14, n=13, [0.14, 0.00, 0.00]) -> (s=0, k=0, n=14, [0.00, 0.00, 0.00])
Timing:                              incl.     excl.
-----------------------------------------------------------
Hamiltonian:                         0.072     0.001   0.0% |
 Atomic:                             0.046     0.002   0.0% |
  XC Correction:                     0.043     0.043   0.0% |
 Calculate atomic Hamiltonians:      0.013     0.013   0.0% |
 Communicate:                        0.000     0.000   0.0% |
 Initialize Hamiltonian:             0.000     0.000   0.0% |
 Poisson:                            0.000     0.000   0.0% |
 XC 3D grid:                         0.012     0.012   0.0% |
LCAO initialization:                14.737     0.045   0.0% |
 LCAO eigensolver:                   0.971     0.003   0.0% |
  Calculate projections:             0.006     0.006   0.0% |
  DenseAtomicCorrection:             0.020     0.020   0.0% |
  Distribute overlap matrix:         0.002     0.002   0.0% |
  Orbital Layouts:                   0.038     0.038   0.0% |
  Potential matrix:                  0.846     0.846   0.4% |
  Sum over cells:                    0.057     0.057   0.0% |
 LCAO to grid:                      11.408    11.408   5.4% |-|
 Set positions (LCAO WFS):           2.313     0.316   0.2% |
  Basic WFS set positions:           0.001     0.001   0.0% |
  Basis functions set positions:     0.000     0.000   0.0% |
  P tci:                             0.919     0.919   0.4% |
  ST tci:                            1.037     1.037   0.5% |
  mktci:                             0.040     0.040   0.0% |
PWDescriptor:                        0.035     0.035   0.0% |
SCF-cycle:                         194.101     0.290   0.1% |
 Davidson:                         176.699    14.636   7.0% |--|
  Apply H:                          36.266    35.869  17.1% |------|
   HMM T:                            0.397     0.397   0.2% |
  Subspace diag:                    44.838     0.083   0.0% |
   calc_h_matrix:                   43.555     0.878   0.4% |
    Apply H:                        42.677    42.263  20.2% |-------|
     HMM T:                          0.414     0.414   0.2% |
   diagonalize:                      0.416     0.416   0.2% |
   rotate_psi:                       0.784     0.784   0.4% |
  calc. matrices:                   77.770     6.787   3.2% ||
   Apply H:                         70.983    70.081  33.4% |------------|
    HMM T:                           0.902     0.902   0.4% |
  diagonalize:                       1.678     1.678   0.8% |
  rotate_psi:                        1.511     1.511   0.7% |
 Density:                           15.705     0.000   0.0% |
  Atomic density matrices:           0.132     0.132   0.1% |
  Mix:                               0.290     0.290   0.1% |
  Multipole moments:                 0.002     0.002   0.0% |
  Pseudo density:                   15.282    15.266   7.3% |--|
   Symmetrize density:               0.016     0.016   0.0% |
 Hamiltonian:                        1.055     0.016   0.0% |
  Atomic:                            0.690     0.034   0.0% |
   XC Correction:                    0.656     0.656   0.3% |
  Calculate atomic Hamiltonians:     0.172     0.172   0.1% |
  Communicate:                       0.000     0.000   0.0% |
  Poisson:                           0.004     0.004   0.0% |
  XC 3D grid:                        0.173     0.173   0.1% |
 Orthonormalize:                     0.351     0.007   0.0% |
  calc_s_matrix:                     0.126     0.126   0.1% |
  inverse-cholesky:                  0.009     0.009   0.0% |
  projections:                       0.178     0.178   0.1% |
  rotate_psi_s:                      0.032     0.032   0.0% |
Set symmetry:                        0.007     0.007   0.0% |
Other:                               0.783     0.783   0.4% |
-----------------------------------------------------------
Total:                                       209.735 100.0%

Memory usage: 1.08 GiB
Date: Mon Jul 25 10:55:57 2022
