
  ___ ___ ___ _ _ _  
 |   |   |_  | | | | 
 | | | | | . | | | | 
 |__ |  _|___|_____|  22.1.0
 |___|_|             

User:   gabrielbirnbaum@Gabriels-MacBook-Pro.local
Date:   Mon Jul 18 21:43:37 2022
Arch:   x86_64
Pid:    47743
Python: 3.9.13
gpaw:   /Users/gabrielbirnbaum/PycharmProjects/nanolithia/venv/lib/python3.9/site-packages/gpaw
_gpaw:  /Users/gabrielbirnbaum/PycharmProjects/nanolithia/venv/lib/python3.9/site-packages/
        _gpaw.cpython-39-darwin.so
ase:    /Users/gabrielbirnbaum/PycharmProjects/nanolithia/venv/lib/python3.9/site-packages/ase (version 3.22.1)
numpy:  /Users/gabrielbirnbaum/PycharmProjects/nanolithia/venv/lib/python3.9/site-packages/numpy (version 1.23.0)
scipy:  /Users/gabrielbirnbaum/PycharmProjects/nanolithia/venv/lib/python3.9/site-packages/scipy (version 1.8.1)
libxc:  5.2.3
units:  Angstrom and eV
cores: 1
OpenMP: False
OMP_NUM_THREADS: 1

Input parameters:
  kpts: {size: (12, 12, 12)}
  mode: {ecut: 500.0,
         name: pw}
  setups: {O: :p,0.76}
  xc: PBE

System changes: positions, numbers, cell, pbc, initial_charges, initial_magmoms 

Initialize ...

Li-setup:
  name: Lithium
  id: 830b4218f175192f93f959cfc0aad614
  Z: 3.0
  valence: 1
  core: 2
  charge: 0.0
  file: /Users/gabrielbirnbaum/dft_learning/DIR/gpaw-setups-0.9.20000/Li.PBE.gz
  compensation charges: gauss, rc=0.33, lmax=2
  cutoffs: 1.91(filt), 2.55(core),
  valence states:
                energy  radius
    2s(1.00)    -2.874   1.058
    2p(0.00)    -1.090   1.058
    *s          24.337   1.058

  Using partial waves for Li as LCAO basis

O-setup:
  name: Oxygen
  id: 32ecd46bf208036f09c70b0ec9a88b78
  Z: 8.0
  valence: 6
  core: 2
  charge: 0.0
  Hubbard U: 0.760000 eV (l=1, scale=True)
  file: /Users/gabrielbirnbaum/dft_learning/DIR/gpaw-setups-0.9.20000/O.PBE.gz
  compensation charges: gauss, rc=0.21, lmax=2
  cutoffs: 1.17(filt), 0.83(core),
  valence states:
                energy  radius
    2s(2.00)   -23.961   0.688
    2p(4.00)    -9.029   0.598
    *s           3.251   0.688
    *p          18.182   0.598
    *d           0.000   0.619

  Using partial waves for O as LCAO basis

Reference energy: -8974.560486

Spin-paired calculation

Convergence criteria:
 Maximum [total energy] change in last 3 cyles: 0.0005 eV / electron
 Maximum integral of absolute [dens]ity change: 0.0001 electrons / valence electron
 Maximum integral of absolute [eigenst]ate change: 4e-08 eV^2 / valence electron
 Maximum number of scf [iter]ations: 333
 (Square brackets indicate name in SCF output, whereas a 'c' in
 the SCF output indicates the quantity has converged.)

Symmetries present (total): 4

  ( 1  0  0)  ( 0  1  0)  ( 0 -1  0)  (-1  0  0)
  ( 0  1  0)  ( 1  0  0)  (-1  0  0)  ( 0 -1  0)
  ( 0  0  1)  ( 0  0 -1)  ( 0  0  1)  ( 0  0 -1)

1728 k-points: 12 x 12 x 12 Monkhorst-Pack grid
468 k-points in the irreducible part of the Brillouin zone
       k-points in crystal coordinates                weights
   0:     0.04166667   -0.04166667   -0.45833333          2/1728
   1:     0.04166667   -0.04166667   -0.37500000          2/1728
   2:     0.04166667   -0.04166667   -0.29166667          2/1728
   3:     0.04166667   -0.04166667   -0.20833333          2/1728
   4:     0.04166667   -0.04166667   -0.12500000          2/1728
   5:     0.04166667   -0.04166667   -0.04166667          2/1728
   6:     0.04166667   -0.04166667    0.04166667          2/1728
   7:     0.04166667   -0.04166667    0.12500000          2/1728
   8:     0.04166667   -0.04166667    0.20833333          2/1728
   9:     0.04166667   -0.04166667    0.29166667          2/1728
          ...
 467:     0.45833333    0.45833333    0.45833333          4/1728

Wave functions: Plane wave expansion
  Cutoff energy: 500.000 eV
  Number of coefficients (min, max): 1690, 1731
  Pulay-stress correction: 0.000000 eV/Ang^3 (de/decut=0.000000)
  Using Numpy's FFT
  ScaLapack parameters: grid=1x1, blocksize=None
  Wavefunction extrapolation:
    Improved wavefunction reuse through dual PAW basis 

Occupation numbers: Fermi-Dirac: width=0.1000 eV
 

Eigensolver
   Davidson(niter=2) 

Densities:
  Coarse grid: 18*18*40 grid
  Fine grid: 36*36*80 grid
  Total Charge: 0.000000 

Density mixing:
  Method: separate
  Backend: pulay
  Linear mixing parameter: 0.05
  Mixing with 5 old densities
  Damping of long wave oscillations: 50 

Hamiltonian:
  XC and Coulomb potentials evaluated on a 36*36*80 grid
  Using the PBE Exchange-Correlation functional
  External potential:
    NoExternalPotential
 

XC parameters: PBE with 2 nearest neighbor stencil

Memory estimate:
  Process memory now: 3132.88 MiB
  Calculator: 395.54 MiB
    Density: 5.84 MiB
      Arrays: 2.57 MiB
      Localized functions: 2.28 MiB
      Mixer: 0.99 MiB
    Hamiltonian: 1.74 MiB
      Arrays: 1.68 MiB
      XC: 0.00 MiB
      Poisson: 0.00 MiB
      vbar: 0.06 MiB
    Wavefunctions: 387.97 MiB
      Arrays psit_nG: 259.59 MiB
      Eigensolver: 0.75 MiB
      Projections: 10.80 MiB
      Projectors: 103.98 MiB
      PW-descriptor: 12.86 MiB

Total number of cores used: 1

Number of atoms: 8
Number of atomic orbitals: 32
Number of bands in calculation: 21
Number of valence electrons: 28
Bands to converge: occupied

... initialized

Initializing position-dependent things.

Density initialized from atomic densities
Creating initial wave functions:
  21 bands from LCAO basis set

                      
                      
                      
                      
             O        
                      
           LiO        
                      
        Li            
                      
           O Li       
                      
           O          
        Li            
                      
                      
                      
                      

Positions:
   0 Li     0.000000    0.000000    3.851761    ( 0.0000,  0.0000,  0.0000)
   1 Li     0.000000    0.000000    0.000000    ( 0.0000,  0.0000,  0.0000)
   2 Li     1.590181   -0.918093    5.777642    ( 0.0000,  0.0000,  0.0000)
   3 Li     1.590181    0.918093    1.925881    ( 0.0000,  0.0000,  0.0000)
   4 O      1.590181   -0.918093    1.150213    ( 0.0000,  0.0000,  0.0000)
   5 O      1.590181    0.918093    5.001974    ( 0.0000,  0.0000,  0.0000)
   6 O      1.590181    0.918093    6.553309    ( 0.0000,  0.0000,  0.0000)
   7 O      1.590181   -0.918093    2.701548    ( 0.0000,  0.0000,  0.0000)

Unit cell:
           periodic     x           y           z      points  spacing
  1. axis:    yes    1.590181   -2.754274    0.000000    18     0.1530
  2. axis:    yes    1.590181    2.754274    0.000000    18     0.1530
  3. axis:    yes    0.000000    0.000000    7.703522    40     0.1926

  Lengths:   3.180362   3.180362   7.703522
  Angles:   90.000000  90.000000 119.999995

Effective grid spacing dv^(1/3) = 0.1733

     iter     time        total  log10-change:
                         energy  eigst   dens
iter:   1 21:45:28   -37.406113
iter:   2 21:46:33   -37.227834  -1.70  -0.88
iter:   3 21:47:39   -36.430823  -1.34  -0.92
iter:   4 21:48:46   -36.881554  -1.32  -1.27
iter:   5 21:49:51   -36.401137  -1.65  -1.32
iter:   6 21:50:53   -36.402213  -3.31  -2.15
iter:   7 21:51:57   -36.434338  -2.71  -2.15
Timing:                              incl.     excl.
-----------------------------------------------------------
Hamiltonian:                         0.185     0.001   0.0% |
 Atomic:                             0.147     0.003   0.0% |
  XC Correction:                     0.144     0.144   0.0% |
 Calculate atomic Hamiltonians:      0.009     0.009   0.0% |
 Communicate:                        0.000     0.000   0.0% |
 Initialize Hamiltonian:             0.000     0.000   0.0% |
 Poisson:                            0.000     0.000   0.0% |
 XC 3D grid:                         0.027     0.027   0.0% |
LCAO initialization:                53.411     0.046   0.0% |
 LCAO eigensolver:                   1.552     0.018   0.0% |
  Calculate projections:             0.036     0.036   0.0% |
  DenseAtomicCorrection:             0.106     0.106   0.0% |
  Distribute overlap matrix:         0.011     0.011   0.0% |
  Orbital Layouts:                   0.266     0.266   0.1% |
  Potential matrix:                  0.740     0.740   0.1% |
  Sum over cells:                    0.375     0.375   0.1% |
 LCAO to grid:                      41.976    41.976   7.9% |--|
 Set positions (LCAO WFS):           9.837     1.263   0.2% |
  Basic WFS set positions:           0.001     0.001   0.0% |
  Basis functions set positions:     0.000     0.000   0.0% |
  P tci:                             3.963     3.963   0.7% |
  ST tci:                            4.570     4.570   0.9% |
  mktci:                             0.040     0.040   0.0% |
PWDescriptor:                        0.154     0.154   0.0% |
SCF-cycle:                         473.116     1.293   0.2% |
 Davidson:                         427.091    26.603   5.0% |-|
  Apply H:                          94.262    93.311  17.6% |------|
   HMM T:                            0.951     0.951   0.2% |
  Subspace diag:                    99.512     0.240   0.0% |
   calc_h_matrix:                   96.653     1.807   0.3% |
    Apply H:                        94.846    93.874  17.7% |------|
     HMM T:                          0.972     0.972   0.2% |
   diagonalize:                      0.807     0.807   0.2% |
   rotate_psi:                       1.811     1.811   0.3% |
  calc. matrices:                  199.474    11.998   2.3% ||
   Apply H:                        187.476   185.609  35.1% |-------------|
    HMM T:                           1.867     1.867   0.4% |
  diagonalize:                       3.916     3.916   0.7% |
  rotate_psi:                        3.325     3.325   0.6% |
 Density:                           42.421     0.000   0.0% |
  Atomic density matrices:           0.378     0.378   0.1% |
  Mix:                               0.159     0.159   0.0% |
  Multipole moments:                 0.001     0.001   0.0% |
  Pseudo density:                   41.882    41.873   7.9% |--|
   Symmetrize density:               0.009     0.009   0.0% |
 Hamiltonian:                        1.354     0.007   0.0% |
  Atomic:                            1.065     0.020   0.0% |
   XC Correction:                    1.045     1.045   0.2% |
  Calculate atomic Hamiltonians:     0.072     0.072   0.0% |
  Communicate:                       0.000     0.000   0.0% |
  Poisson:                           0.005     0.005   0.0% |
  XC 3D grid:                        0.205     0.205   0.0% |
 Orthonormalize:                     0.957     0.032   0.0% |
  calc_s_matrix:                     0.199     0.199   0.0% |
  inverse-cholesky:                  0.036     0.036   0.0% |
  projections:                       0.574     0.574   0.1% |
  rotate_psi_s:                      0.115     0.115   0.0% |
Set symmetry:                        0.032     0.032   0.0% |
Other:                               2.439     2.439   0.5% |
-----------------------------------------------------------
Total:                                       529.337 100.0%

Memory usage: 3.18 GiB
Date: Mon Jul 18 21:52:27 2022
