
  ___ ___ ___ _ _ _  
 |   |   |_  | | | | 
 | | | | | . | | | | 
 |__ |  _|___|_____|  22.1.0
 |___|_|             

User:   gabrielbirnbaum@Gabriels-MacBook-Pro.local
Date:   Mon Jul 25 07:40:57 2022
Arch:   x86_64
Pid:    69738
Python: 3.9.13
gpaw:   /Users/gabrielbirnbaum/PycharmProjects/nanolithia/venv/lib/python3.9/site-packages/gpaw
_gpaw:  /Users/gabrielbirnbaum/PycharmProjects/nanolithia/venv/lib/python3.9/site-packages/
        _gpaw.cpython-39-darwin.so
ase:    /Users/gabrielbirnbaum/PycharmProjects/nanolithia/venv/lib/python3.9/site-packages/ase (version 3.22.1)
numpy:  /Users/gabrielbirnbaum/PycharmProjects/nanolithia/venv/lib/python3.9/site-packages/numpy (version 1.23.0)
scipy:  /Users/gabrielbirnbaum/PycharmProjects/nanolithia/venv/lib/python3.9/site-packages/scipy (version 1.8.1)
libxc:  5.2.3
units:  Angstrom and eV
cores: 1
OpenMP: False
OMP_NUM_THREADS: 1

Input parameters:
  convergence: {density: 0.001,
                eigenstates: 0.0001,
                energy: 0.0002}
  kpts: {gamma: True,
         size: (8, 8, 8)}
  mode: {ecut: 500.0,
         name: pw}
  setups: {O: :p,0.76,0}
  spinpol: False

System changes: positions, numbers, cell, pbc, initial_charges, initial_magmoms 

Initialize ...

Li-setup:
  name: Lithium
  id: b73562207f97a71b6967473b66fe8b65
  Z: 3.0
  valence: 1
  core: 2
  charge: 0.0
  file: /Users/gabrielbirnbaum/dft_learning/DIR/gpaw-setups-0.9.20000/Li.LDA.gz
  compensation charges: gauss, rc=0.33, lmax=2
  cutoffs: 1.91(filt), 2.55(core),
  valence states:
                energy  radius
    2s(1.00)    -2.874   1.058
    2p(0.00)    -1.126   1.058
    *s          24.338   1.058

  Using partial waves for Li as LCAO basis

O-setup:
  name: Oxygen
  id: 9b9d51c344dea68c822856295a461509
  Z: 8.0
  valence: 6
  core: 2
  charge: 0.0
  Hubbard U: 0.760000 eV (l=1, scale=False)
  file: /Users/gabrielbirnbaum/dft_learning/DIR/gpaw-setups-0.9.20000/O.LDA.gz
  compensation charges: gauss, rc=0.21, lmax=2
  cutoffs: 1.17(filt), 0.83(core),
  valence states:
                energy  radius
    2s(2.00)   -23.752   0.688
    2p(4.00)    -9.195   0.598
    *s           3.459   0.688
    *p          18.016   0.598
    *d           0.000   0.619

  Using partial waves for O as LCAO basis

Reference energy: -8910.067456

Spin-paired calculation

Convergence criteria:
 Maximum [total energy] change in last 3 cyles: 0.0002 eV / electron
 Maximum integral of absolute [dens]ity change: 0.001 electrons / valence electron
 Maximum integral of absolute [eigenst]ate change: 0.0001 eV^2 / valence electron
 Maximum number of scf [iter]ations: 333
 (Square brackets indicate name in SCF output, whereas a 'c' in
 the SCF output indicates the quantity has converged.)

Symmetries present (total): 4

  ( 1  0  0)  ( 0  1  0)  ( 0 -1  0)  (-1  0  0)
  ( 0  1  0)  ( 1  0  0)  (-1  0  0)  ( 0 -1  0)
  ( 0  0  1)  ( 0  0 -1)  ( 0  0  1)  ( 0  0 -1)

512 k-points: 8 x 8 x 8 Monkhorst-Pack grid + [1/16,1/16,1/16]
150 k-points in the irreducible part of the Brillouin zone
       k-points in crystal coordinates                weights
   0:     0.00000000    0.00000000    0.00000000          1/512
   1:     0.00000000    0.00000000    0.12500000          2/512
   2:     0.00000000    0.00000000    0.25000000          2/512
   3:     0.00000000    0.00000000    0.37500000          2/512
   4:     0.00000000    0.00000000    0.50000000          1/512
   5:     0.12500000   -0.12500000   -0.37500000          2/512
   6:     0.12500000   -0.12500000   -0.25000000          2/512
   7:     0.12500000   -0.12500000   -0.12500000          2/512
   8:     0.12500000   -0.12500000    0.00000000          2/512
   9:     0.12500000   -0.12500000    0.12500000          2/512
          ...
 149:     0.50000000    0.50000000    0.50000000          1/512

Wave functions: Plane wave expansion
  Cutoff energy: 500.000 eV
  Number of coefficients (min, max): 1679, 1726
  Pulay-stress correction: 0.000000 eV/Ang^3 (de/decut=0.000000)
  Using Numpy's FFT
  ScaLapack parameters: grid=1x1, blocksize=None
  Wavefunction extrapolation:
    Improved wavefunction reuse through dual PAW basis 

Occupation numbers: Fermi-Dirac: width=0.1000 eV
 

Eigensolver
   Davidson(niter=2) 

Densities:
  Coarse grid: 18*18*40 grid
  Fine grid: 36*36*80 grid
  Total Charge: 0.000000 

Density mixing:
  Method: separate
  Backend: pulay
  Linear mixing parameter: 0.05
  Mixing with 5 old densities
  Damping of long wave oscillations: 50 

Hamiltonian:
  XC and Coulomb potentials evaluated on a 36*36*80 grid
  Using the LDA Exchange-Correlation functional
  External potential:
    NoExternalPotential
 

Memory estimate:
  Process memory now: 647.55 MiB
  Calculator: 132.53 MiB
    Density: 5.84 MiB
      Arrays: 2.57 MiB
      Localized functions: 2.28 MiB
      Mixer: 0.99 MiB
    Hamiltonian: 1.74 MiB
      Arrays: 1.68 MiB
      XC: 0.00 MiB
      Poisson: 0.00 MiB
      vbar: 0.06 MiB
    Wavefunctions: 124.96 MiB
      Arrays psit_nG: 82.96 MiB
      Eigensolver: 0.75 MiB
      Projections: 3.46 MiB
      Projectors: 33.34 MiB
      PW-descriptor: 4.44 MiB

Total number of cores used: 1

Number of atoms: 8
Number of atomic orbitals: 32
Number of bands in calculation: 21
Number of valence electrons: 28
Bands to converge: occupied

... initialized

Initializing position-dependent things.

Density initialized from atomic densities
Creating initial wave functions:
  21 bands from LCAO basis set

                      
                      
                      
                      
             O        
                      
           LiO        
                      
        Li            
                      
           O Li       
                      
           O          
        Li            
                      
                      
                      
                      

Positions:
   0 Li     0.000000    0.000000    3.851761    ( 0.0000,  0.0000,  0.0000)
   1 Li     0.000000    0.000000    0.000000    ( 0.0000,  0.0000,  0.0000)
   2 Li     1.590181   -0.918093    5.777642    ( 0.0000,  0.0000,  0.0000)
   3 Li     1.590181    0.918093    1.925881    ( 0.0000,  0.0000,  0.0000)
   4 O      1.590181   -0.918093    1.150213    ( 0.0000,  0.0000,  0.0000)
   5 O      1.590181    0.918093    5.001974    ( 0.0000,  0.0000,  0.0000)
   6 O      1.590181    0.918093    6.553309    ( 0.0000,  0.0000,  0.0000)
   7 O      1.590181   -0.918093    2.701548    ( 0.0000,  0.0000,  0.0000)

Unit cell:
           periodic     x           y           z      points  spacing
  1. axis:    yes    1.590181   -2.754274    0.000000    18     0.1530
  2. axis:    yes    1.590181    2.754274    0.000000    18     0.1530
  3. axis:    yes    0.000000    0.000000    7.703522    40     0.1926

  Lengths:   3.180362   3.180362   7.703522
  Angles:   90.000000  90.000000 119.999995

Effective grid spacing dv^(1/3) = 0.1733

     iter     time        total  log10-change:
                         energy  eigst   dens
iter:   1 07:41:32   -40.839950
iter:   2 07:41:52   -40.673929  -1.69  -0.90
iter:   3 07:42:11   -39.803569  -1.43  -0.94
iter:   4 07:42:31   -39.978653  -1.44  -1.29
iter:   5 07:42:52   -39.652308  -1.69  -1.40
iter:   6 07:43:12   -39.652290  -3.45  -2.07
iter:   7 07:43:33   -39.712085  -2.14  -2.08
iter:   8 07:43:54   -39.642755  -2.59  -1.74
iter:   9 07:44:15   -39.642282  -4.02c -2.47
iter:  10 07:44:37   -39.641688c -4.23c -2.58
iter:  11 07:45:00   -39.641671c -5.78c -3.25c

Converged after 11 iterations.

Dipole moment: (0.000000, -0.000000, -0.000000) |e|*Ang

Energy contributions relative to reference atoms: (reference = -8910.067456)

Kinetic:        +29.132073
Potential:      -26.771473
External:        +0.000000
XC:             -42.181097
Entropy (-ST):   -0.000014
Local:           +0.178833
--------------------------
Free energy:    -39.641678
Extrapolated:   -39.641671

Showing only first 2 kpts
 Kpt  Band  Eigenvalues  Occupancy
  0    12      2.33723    1.99997
  0    13      2.33726    1.99997
  0    14      4.25725    0.00053
  0    15      6.50070    0.00000

  1    12      2.31921    1.99997
  1    13      2.31923    1.99997
  1    14      4.34657    0.00022
  1    15      6.40605    0.00000


Fermi level: 3.43365

Gap: 1.911 eV
Transition (v -> c):
  (s=0, k=16, n=13, [0.12, 0.00, 0.00]) -> (s=0, k=0, n=14, [0.00, 0.00, 0.00])
Timing:                              incl.     excl.
-----------------------------------------------------------
Hamiltonian:                         0.064     0.001   0.0% |
 Atomic:                             0.044     0.002   0.0% |
  XC Correction:                     0.043     0.043   0.0% |
 Calculate atomic Hamiltonians:      0.009     0.009   0.0% |
 Communicate:                        0.000     0.000   0.0% |
 Initialize Hamiltonian:             0.000     0.000   0.0% |
 Poisson:                            0.000     0.000   0.0% |
 XC 3D grid:                         0.010     0.010   0.0% |
LCAO initialization:                17.823     0.035   0.0% |
 LCAO eigensolver:                   0.929     0.005   0.0% |
  Calculate projections:             0.009     0.009   0.0% |
  DenseAtomicCorrection:             0.031     0.031   0.0% |
  Distribute overlap matrix:         0.003     0.003   0.0% |
  Orbital Layouts:                   0.067     0.067   0.0% |
  Potential matrix:                  0.678     0.678   0.3% |
  Sum over cells:                    0.137     0.137   0.1% |
 LCAO to grid:                      13.853    13.853   5.7% |-|
 Set positions (LCAO WFS):           3.007     0.391   0.2% |
  Basic WFS set positions:           0.001     0.001   0.0% |
  Basis functions set positions:     0.000     0.000   0.0% |
  P tci:                             1.090     1.090   0.4% |
  ST tci:                            1.487     1.487   0.6% |
  mktci:                             0.039     0.039   0.0% |
PWDescriptor:                        0.071     0.071   0.0% |
SCF-cycle:                         223.762     0.410   0.2% |
 Davidson:                         203.636    13.252   5.5% |-|
  Apply H:                          43.210    42.770  17.6% |------|
   HMM T:                            0.440     0.440   0.2% |
  Subspace diag:                    51.274     0.109   0.0% |
   calc_h_matrix:                   49.846     0.882   0.4% |
    Apply H:                        48.964    48.512  20.0% |-------|
     HMM T:                          0.452     0.452   0.2% |
   diagonalize:                      0.449     0.449   0.2% |
   rotate_psi:                       0.870     0.870   0.4% |
  calc. matrices:                   92.490     6.517   2.7% ||
   Apply H:                         85.973    85.099  35.1% |-------------|
    HMM T:                           0.874     0.874   0.4% |
  diagonalize:                       1.752     1.752   0.7% |
  rotate_psi:                        1.658     1.658   0.7% |
 Density:                           18.473     0.000   0.0% |
  Atomic density matrices:           0.177     0.177   0.1% |
  Mix:                               0.217     0.217   0.1% |
  Multipole moments:                 0.002     0.002   0.0% |
  Pseudo density:                   18.077    18.064   7.4% |--|
   Symmetrize density:               0.013     0.013   0.0% |
 Hamiltonian:                        0.890     0.010   0.0% |
  Atomic:                            0.632     0.030   0.0% |
   XC Correction:                    0.602     0.602   0.2% |
  Calculate atomic Hamiltonians:     0.117     0.117   0.0% |
  Communicate:                       0.000     0.000   0.0% |
  Poisson:                           0.003     0.003   0.0% |
  XC 3D grid:                        0.128     0.128   0.1% |
 Orthonormalize:                     0.352     0.009   0.0% |
  calc_s_matrix:                     0.111     0.111   0.0% |
  inverse-cholesky:                  0.011     0.011   0.0% |
  projections:                       0.188     0.188   0.1% |
  rotate_psi_s:                      0.033     0.033   0.0% |
Set symmetry:                        0.010     0.010   0.0% |
Other:                               0.906     0.906   0.4% |
-----------------------------------------------------------
Total:                                       242.636 100.0%

Memory usage: 768.24 MiB
Date: Mon Jul 25 07:45:00 2022
