
  ___ ___ ___ _ _ _  
 |   |   |_  | | | | 
 | | | | | . | | | | 
 |__ |  _|___|_____|  22.1.0
 |___|_|             

User:   gabrielbirnbaum@Gabriels-MacBook-Pro.local
Date:   Fri Aug 12 20:17:59 2022
Arch:   x86_64
Pid:    30173
Python: 3.9.13
gpaw:   /Users/gabrielbirnbaum/PycharmProjects/nanolithia/venv/lib/python3.9/site-packages/gpaw
_gpaw:  /Users/gabrielbirnbaum/PycharmProjects/nanolithia/venv/lib/python3.9/site-packages/
        _gpaw.cpython-39-darwin.so
ase:    /Users/gabrielbirnbaum/PycharmProjects/nanolithia/venv/lib/python3.9/site-packages/ase (version 3.22.1)
numpy:  /Users/gabrielbirnbaum/PycharmProjects/nanolithia/venv/lib/python3.9/site-packages/numpy (version 1.23.0)
scipy:  /Users/gabrielbirnbaum/PycharmProjects/nanolithia/venv/lib/python3.9/site-packages/scipy (version 1.8.1)
libxc:  5.2.3
units:  Angstrom and eV
cores: 1
OpenMP: False
OMP_NUM_THREADS: 1

Input parameters:
  kpts: {gamma: True,
         size: (5, 5, 7)}
  mode: {ecut: 540.0,
         name: pw}
  xc: PBE

System changes: positions, numbers, cell, pbc, initial_charges, initial_magmoms 

Initialize ...

Li-setup:
  name: Lithium
  id: 830b4218f175192f93f959cfc0aad614
  Z: 3.0
  valence: 1
  core: 2
  charge: 0.0
  file: /Users/gabrielbirnbaum/PycharmProjects/nanolithia/venv/lib/python3.9/site-packages/ase/vibrations/setups/gpaw-setups-0.9.20000/Li.PBE.gz
  compensation charges: gauss, rc=0.33, lmax=2
  cutoffs: 1.91(filt), 2.55(core),
  valence states:
                energy  radius
    2s(1.00)    -2.874   1.058
    2p(0.00)    -1.090   1.058
    *s          24.337   1.058

  Using partial waves for Li as LCAO basis

O-setup:
  name: Oxygen
  id: 32ecd46bf208036f09c70b0ec9a88b78
  Z: 8.0
  valence: 6
  core: 2
  charge: 0.0
  file: /Users/gabrielbirnbaum/PycharmProjects/nanolithia/venv/lib/python3.9/site-packages/ase/vibrations/setups/gpaw-setups-0.9.20000/O.PBE.gz
  compensation charges: gauss, rc=0.21, lmax=2
  cutoffs: 1.17(filt), 0.83(core),
  valence states:
                energy  radius
    2s(2.00)   -23.961   0.688
    2p(4.00)    -9.029   0.598
    *s           3.251   0.688
    *p          18.182   0.598
    *d           0.000   0.619

  Using partial waves for O as LCAO basis

Reference energy: -2446.427942

Spin-polarized calculation.
Magnetic moment: 1.800000

Convergence criteria:
 Maximum [total energy] change in last 3 cyles: 0.0005 eV / electron
 Maximum integral of absolute [dens]ity change: 0.0001 electrons / valence electron
 Maximum integral of absolute [eigenst]ate change: 4e-08 eV^2 / valence electron
 Maximum number of scf [iter]ations: 333
 (Square brackets indicate name in SCF output, whereas a 'c' in
 the SCF output indicates the quantity has converged.)

Symmetries present (total): 48

  ( 1  0  0)  ( 1  0  0)  ( 1  0  0)  ( 1  0  0)  ( 1  0 -1)  ( 1  0 -1)
  ( 1  0 -1)  ( 1 -1  0)  ( 0  1  0)  ( 0  0  1)  ( 1  0  0)  ( 1 -1  0)
  ( 1 -1  0)  ( 1  0 -1)  ( 0  0  1)  ( 0  1  0)  ( 1 -1  0)  ( 1  0  0)

  ( 1  0 -1)  ( 1  0 -1)  ( 1 -1  0)  ( 1 -1  0)  ( 1 -1  0)  ( 1 -1  0)
  ( 0  1 -1)  ( 0  0 -1)  ( 1  0  0)  ( 1  0 -1)  ( 0 -1  1)  ( 0 -1  0)
  ( 0  0 -1)  ( 0  1 -1)  ( 1  0 -1)  ( 1  0  0)  ( 0 -1  0)  ( 0 -1  1)

  ( 0  1  0)  ( 0  1  0)  ( 0  1  0)  ( 0  1  0)  ( 0  1 -1)  ( 0  1 -1)
  ( 1  0  0)  ( 0  1 -1)  ( 0  0  1)  (-1  1  0)  ( 1  0 -1)  ( 0  1  0)
  ( 0  0  1)  (-1  1  0)  ( 1  0  0)  ( 0  1 -1)  ( 0  0 -1)  (-1  1  0)

  ( 0  1 -1)  ( 0  1 -1)  ( 0  0  1)  ( 0  0  1)  ( 0  0  1)  ( 0  0  1)
  ( 0  0 -1)  (-1  1  0)  ( 1  0  0)  ( 0  1  0)  ( 0 -1  1)  (-1  0  1)
  ( 1  0 -1)  ( 0  1  0)  ( 0  1  0)  ( 1  0  0)  (-1  0  1)  ( 0 -1  1)

  ( 0  0 -1)  ( 0  0 -1)  ( 0  0 -1)  ( 0  0 -1)  ( 0 -1  1)  ( 0 -1  1)
  ( 1  0 -1)  ( 0  1 -1)  ( 0 -1  0)  (-1  0  0)  ( 1 -1  0)  ( 0  0  1)
  ( 0  1 -1)  ( 1  0 -1)  (-1  0  0)  ( 0 -1  0)  ( 0 -1  0)  (-1  0  1)

  ( 0 -1  1)  ( 0 -1  1)  ( 0 -1  0)  ( 0 -1  0)  ( 0 -1  0)  ( 0 -1  0)
  ( 0 -1  0)  (-1  0  1)  ( 1 -1  0)  ( 0  0 -1)  ( 0 -1  1)  (-1  0  0)
  ( 1 -1  0)  ( 0  0  1)  ( 0 -1  1)  (-1  0  0)  ( 1 -1  0)  ( 0  0 -1)

  (-1  1  0)  (-1  1  0)  (-1  1  0)  (-1  1  0)  (-1  0  1)  (-1  0  1)
  ( 0  1  0)  ( 0  1 -1)  (-1  0  1)  (-1  0  0)  ( 0  0  1)  ( 0 -1  1)
  ( 0  1 -1)  ( 0  1  0)  (-1  0  0)  (-1  0  1)  ( 0 -1  1)  ( 0  0  1)

  (-1  0  1)  (-1  0  1)  (-1  0  0)  (-1  0  0)  (-1  0  0)  (-1  0  0)
  (-1  1  0)  (-1  0  0)  ( 0  0 -1)  ( 0 -1  0)  (-1  1  0)  (-1  0  1)
  (-1  0  0)  (-1  1  0)  ( 0 -1  0)  ( 0  0 -1)  (-1  0  1)  (-1  1  0)
Note: your k-points are not as symmetric as your crystal!

175 k-points: 5 x 5 x 7 Monkhorst-Pack grid
54 k-points in the irreducible part of the Brillouin zone
       k-points in crystal coordinates                weights
   0:     0.00000000    0.00000000    0.00000000          1/175
   1:     0.00000000    0.00000000    0.14285714          2/175
   2:     0.00000000    0.00000000    0.28571429          2/175
   3:     0.00000000    0.00000000    0.42857143          2/175
   4:     0.20000000   -0.20000000    0.00000000          2/175
   5:     0.20000000   -0.20000000    0.14285714          4/175
   6:     0.20000000   -0.20000000    0.28571429          4/175
   7:     0.20000000   -0.20000000    0.42857143          4/175
   8:     0.20000000    0.00000000   -0.42857143          4/175
   9:     0.20000000    0.00000000   -0.28571429          4/175
          ...
  53:     0.40000000    0.40000000    0.42857143          2/175

Wave functions: Plane wave expansion
  Cutoff energy: 540.000 eV
  Number of coefficients (min, max): 712, 733
  Pulay-stress correction: 0.000000 eV/Ang^3 (de/decut=0.000000)
  Using Numpy's FFT
  ScaLapack parameters: grid=1x1, blocksize=None
  Wavefunction extrapolation:
    Improved wavefunction reuse through dual PAW basis 

Occupation numbers: Fermi-Dirac: width=0.1000 eV
 

Eigensolver
   Davidson(niter=2) 

Densities:
  Coarse grid: 18*18*18 grid
  Fine grid: 36*36*36 grid
  Total Charge: 0.000000 

Density mixing:
  Method: difference
  Backend: pulay
  Linear mixing parameter: 0.05
  Mixing with 5 old densities
  Damping of long wave oscillations: 50 

Hamiltonian:
  XC and Coulomb potentials evaluated on a 36*36*36 grid
  Using the PBE Exchange-Correlation functional
  External potential:
    NoExternalPotential
 

XC parameters: PBE with 2 nearest neighbor stencil

Memory estimate:
  Process memory now: 100.85 MiB
  Calculator: 22.84 MiB
    Density: 3.14 MiB
      Arrays: 1.56 MiB
      Localized functions: 0.96 MiB
      Mixer: 0.62 MiB
    Hamiltonian: 1.18 MiB
      Arrays: 1.16 MiB
      XC: 0.00 MiB
      Poisson: 0.00 MiB
      vbar: 0.02 MiB
    Wavefunctions: 18.51 MiB
      Arrays psit_nG: 12.08 MiB
      Eigensolver: 0.18 MiB
      Projections: 0.38 MiB
      Projectors: 5.05 MiB
      PW-descriptor: 0.83 MiB

Total number of cores used: 1

Number of atoms: 3
Number of atomic orbitals: 12
Number of bands in calculation: 10
Number of valence electrons: 8
Bands to converge: occupied

... initialized

Initializing position-dependent things.

Density initialized from atomic densities
Creating initial wave functions:
  10 bands from LCAO basis set

                              
                              
                              
                     Li       
                              
                              
            Li                
                              
       O                      
                              
                              
                              

Positions:
   0 Li     4.941448    2.852946    2.017338    ( 0.0000,  0.0000,  0.6000)
   1 Li     1.647149    0.950982    0.672446    ( 0.0000,  0.0000,  0.6000)
   2 O      0.000000    0.000000    0.000000    ( 0.0000,  0.0000,  0.6000)

Unit cell:
           periodic     x           y           z      points  spacing
  1. axis:    yes    3.294299    0.000000    0.000000    18     0.1494
  2. axis:    yes    1.647149    2.852946    0.000000    18     0.1494
  3. axis:    yes    1.647149    0.950982    2.689784    18     0.1494

  Lengths:   3.294299   3.294299   3.294299
  Angles:   60.000000  60.000000  60.000000

Effective grid spacing dv^(1/3) = 0.1630

     iter     time        total  log10-change:  magmom
                         energy  eigst   dens
iter:   1 20:18:39   -14.525935                  +1.7246
iter:   2 20:18:43   -14.737703  -2.13  -0.78    +0.5174
iter:   3 20:18:46   -14.287848  -1.92  -0.83    -0.0006
iter:   4 20:18:50   -14.500875  -1.52  -1.03    -0.0005
iter:   5 20:18:53   -14.207687  -1.68  -1.10    -0.0001
iter:   6 20:18:57   -14.210771  -3.01  -1.85    -0.0000
iter:   7 20:19:00   -14.211173c -4.76  -2.11    +0.0000
iter:   8 20:19:04   -14.209397c -4.16  -2.07    +0.0000
iter:   9 20:19:07   -14.209377c -5.43  -2.97    +0.0000
iter:  10 20:19:11   -14.209381c -6.80  -3.59    +0.0000
iter:  11 20:19:14   -14.209378c -6.30  -3.45    -0.0000
iter:  12 20:19:18   -14.209378c -8.47c -4.45c   -0.0000

Converged after 12 iterations.

Dipole moment: (-0.000000, 0.000000, -0.000000) |e|*Ang

Total magnetic moment: (0.000000, 0.000000, -0.000000)
Local magnetic moments:
   0 Li ( 0.000000,  0.000000, -0.000000)
   1 Li ( 0.000000,  0.000000, -0.000000)
   2 O  ( 0.000000,  0.000000,  0.000000)

Energy contributions relative to reference atoms: (reference = -2446.427942)

Kinetic:        +14.259133
Potential:      -12.717675
External:        +0.000000
XC:             -15.846190
Entropy (-ST):   -0.000000
Local:           +0.095353
--------------------------
Free energy:    -14.209378
Extrapolated:   -14.209378

Spin contamination: 0.000000 electrons
Showing only first 2 kpts
                      Up                     Down
 Kpt  Band  Eigenvalues  Occupancy  Eigenvalues  Occupancy
  0     2      1.22440    1.00000      1.22440    1.00000
  0     3      1.22440    1.00000      1.22440    1.00000
  0     4      6.28102    0.00000      6.28102    0.00000
  0     5     13.02937    0.00000     13.02937    0.00000

  1     2      1.13673    1.00000      1.13673    1.00000
  1     3      1.13698    1.00000      1.13698    1.00000
  1     4      6.82101    0.00000      6.82101    0.00000
  1     5     13.01743    0.00000     13.01743    0.00000


Fermi level: 4.16058

Gap: 5.057 eV
Transition (v -> c):
  (s=1, k=0, n=3, [0.00, 0.00, 0.00]) -> (s=1, k=0, n=4, [0.00, 0.00, 0.00])
Writing to /Users/gabrielbirnbaum/PycharmProjects/nanolithia/calculators/Li2O-mp-1960-PBE-540-{'size': (5, 5, 7), 'gamma': True}.gpw (mode='')

Timing:                              incl.     excl.
-----------------------------------------------------------
Hamiltonian:                         0.111     0.000   0.0% |
 Atomic:                             0.078     0.000   0.0% |
  XC Correction:                     0.078     0.078   0.0% |
 Calculate atomic Hamiltonians:      0.002     0.002   0.0% |
 Communicate:                        0.000     0.000   0.0% |
 Initialize Hamiltonian:             0.000     0.000   0.0% |
 Poisson:                            0.000     0.000   0.0% |
 XC 3D grid:                         0.030     0.030   0.0% |
LCAO initialization:                36.931     0.039   0.0% |
 LCAO eigensolver:                  34.759     0.005   0.0% |
  Calculate projections:             0.003     0.003   0.0% |
  DenseAtomicCorrection:             0.013     0.013   0.0% |
  Distribute overlap matrix:         0.002     0.002   0.0% |
  Orbital Layouts:                   0.017     0.017   0.0% |
  Potential matrix:                 34.652    34.652   2.6% ||
  Sum over cells:                    0.066     0.066   0.0% |
 LCAO to grid:                       1.691     1.691   0.1% |
 Set positions (LCAO WFS):           0.443     0.070   0.0% |
  Basic WFS set positions:           0.003     0.003   0.0% |
  Basis functions set positions:     0.000     0.000   0.0% |
  P tci:                             0.127     0.127   0.0% |
  ST tci:                            0.221     0.221   0.0% |
  mktci:                             0.022     0.022   0.0% |
PWDescriptor:                        0.013     0.013   0.0% |
SCF-cycle:                          41.832     0.181   0.0% |
 Davidson:                          36.259     2.327   0.2% |
  Apply H:                           7.734     7.610   0.6% |
   HMM T:                            0.124     0.124   0.0% |
  Subspace diag:                     8.456     0.072   0.0% |
   calc_h_matrix:                    8.089     0.258   0.0% |
    Apply H:                         7.831     7.704   0.6% |
     HMM T:                          0.127     0.127   0.0% |
   diagonalize:                      0.163     0.163   0.0% |
   rotate_psi:                       0.132     0.132   0.0% |
  calc. matrices:                   17.057     1.747   0.1% |
   Apply H:                         15.310    15.068   1.1% |
    HMM T:                           0.242     0.242   0.0% |
  diagonalize:                       0.488     0.488   0.0% |
  rotate_psi:                        0.198     0.198   0.0% |
 Density:                            3.753     0.000   0.0% |
  Atomic density matrices:           0.065     0.065   0.0% |
  Mix:                               0.073     0.073   0.0% |
  Multipole moments:                 0.001     0.001   0.0% |
  Pseudo density:                    3.613     3.470   0.3% |
   Symmetrize density:               0.144     0.144   0.0% |
 Hamiltonian:                        1.585     0.006   0.0% |
  Atomic:                            1.145     0.006   0.0% |
   XC Correction:                    1.139     1.139   0.1% |
  Calculate atomic Hamiltonians:     0.022     0.022   0.0% |
  Communicate:                       0.000     0.000   0.0% |
  Poisson:                           0.002     0.002   0.0% |
  XC 3D grid:                        0.410     0.410   0.0% |
 Orthonormalize:                     0.053     0.006   0.0% |
  calc_s_matrix:                     0.014     0.014   0.0% |
  inverse-cholesky:                  0.007     0.007   0.0% |
  projections:                       0.022     0.022   0.0% |
  rotate_psi_s:                      0.005     0.005   0.0% |
Set symmetry:                        0.019     0.019   0.0% |
Other:                            1246.648  1246.648  94.0% |-------------------------------------|
-----------------------------------------------------------
Total:                                      1325.554 100.0%

Memory usage: 673.24 MiB
Date: Fri Aug 12 20:40:04 2022
