
  ___ ___ ___ _ _ _  
 |   |   |_  | | | | 
 | | | | | . | | | | 
 |__ |  _|___|_____|  22.1.0
 |___|_|             

User:   gabrielbirnbaum@Gabriels-MacBook-Pro.local
Date:   Sat Aug  6 19:28:33 2022
Arch:   x86_64
Pid:    90974
Python: 3.9.13
gpaw:   /Users/gabrielbirnbaum/PycharmProjects/nanolithia/venv/lib/python3.9/site-packages/gpaw
_gpaw:  /Users/gabrielbirnbaum/PycharmProjects/nanolithia/venv/lib/python3.9/site-packages/
        _gpaw.cpython-39-darwin.so
ase:    /Users/gabrielbirnbaum/PycharmProjects/nanolithia/venv/lib/python3.9/site-packages/ase (version 3.22.1)
numpy:  /Users/gabrielbirnbaum/PycharmProjects/nanolithia/venv/lib/python3.9/site-packages/numpy (version 1.23.0)
scipy:  /Users/gabrielbirnbaum/PycharmProjects/nanolithia/venv/lib/python3.9/site-packages/scipy (version 1.8.1)
libxc:  5.2.3
units:  Angstrom and eV
cores: 1
OpenMP: False
OMP_NUM_THREADS: 1

Input parameters:
  convergence: {density: 0.001,
                eigenstates: 0.0001,
                energy: 0.0002}
  kpts: {gamma: True,
         size: (6, 6, 6)}
  mode: {ecut: 600.0,
         name: pw}
  spinpol: False
  xc: PBE

System changes: positions, numbers, cell, pbc, initial_charges, initial_magmoms 

Initialize ...

Li-setup:
  name: Lithium
  id: 830b4218f175192f93f959cfc0aad614
  Z: 3.0
  valence: 1
  core: 2
  charge: 0.0
  file: /Users/gabrielbirnbaum/dft_learning/DIR/gpaw-setups-0.9.20000/Li.PBE.gz
  compensation charges: gauss, rc=0.33, lmax=2
  cutoffs: 1.91(filt), 2.55(core),
  valence states:
                energy  radius
    2s(1.00)    -2.874   1.058
    2p(0.00)    -1.090   1.058
    *s          24.337   1.058

  Using partial waves for Li as LCAO basis

O-setup:
  name: Oxygen
  id: 32ecd46bf208036f09c70b0ec9a88b78
  Z: 8.0
  valence: 6
  core: 2
  charge: 0.0
  file: /Users/gabrielbirnbaum/dft_learning/DIR/gpaw-setups-0.9.20000/O.PBE.gz
  compensation charges: gauss, rc=0.21, lmax=2
  cutoffs: 1.17(filt), 0.83(core),
  valence states:
                energy  radius
    2s(2.00)   -23.961   0.688
    2p(4.00)    -9.029   0.598
    *s           3.251   0.688
    *p          18.182   0.598
    *d           0.000   0.619

  Using partial waves for O as LCAO basis

Reference energy: -8974.560486

Spin-paired calculation

Convergence criteria:
 Maximum [total energy] change in last 3 cyles: 0.0002 eV / electron
 Maximum integral of absolute [dens]ity change: 0.001 electrons / valence electron
 Maximum integral of absolute [eigenst]ate change: 0.0001 eV^2 / valence electron
 Maximum number of scf [iter]ations: 333
 (Square brackets indicate name in SCF output, whereas a 'c' in
 the SCF output indicates the quantity has converged.)

Symmetries present (total): 4

  ( 1  0  0)  ( 0  1  0)  ( 0 -1  0)  (-1  0  0)
  ( 0  1  0)  ( 1  0  0)  (-1  0  0)  ( 0 -1  0)
  ( 0  0  1)  ( 0  0 -1)  ( 0  0  1)  ( 0  0 -1)

216 k-points: 6 x 6 x 6 Monkhorst-Pack grid + [1/12,1/12,1/12]
68 k-points in the irreducible part of the Brillouin zone
       k-points in crystal coordinates                weights
   0:     0.00000000    0.00000000    0.00000000          1/216
   1:     0.00000000    0.00000000    0.16666667          2/216
   2:     0.00000000    0.00000000    0.33333333          2/216
   3:     0.00000000    0.00000000    0.50000000          1/216
   4:     0.16666667   -0.16666667   -0.33333333          2/216
   5:     0.16666667   -0.16666667   -0.16666667          2/216
   6:     0.16666667   -0.16666667    0.00000000          2/216
   7:     0.16666667   -0.16666667    0.16666667          2/216
   8:     0.16666667   -0.16666667    0.33333333          2/216
   9:     0.16666667   -0.16666667    0.50000000          2/216
          ...
  67:     0.50000000    0.50000000    0.50000000          1/216

Wave functions: Plane wave expansion
  Cutoff energy: 600.000 eV
  Number of coefficients (min, max): 2211, 2265
  Pulay-stress correction: 0.000000 eV/Ang^3 (de/decut=0.000000)
  Using Numpy's FFT
  ScaLapack parameters: grid=1x1, blocksize=None
  Wavefunction extrapolation:
    Improved wavefunction reuse through dual PAW basis 

Occupation numbers: Fermi-Dirac: width=0.1000 eV
 

Eigensolver
   Davidson(niter=2) 

Densities:
  Coarse grid: 18*18*45 grid
  Fine grid: 36*36*90 grid
  Total Charge: 0.000000 

Density mixing:
  Method: separate
  Backend: pulay
  Linear mixing parameter: 0.05
  Mixing with 5 old densities
  Damping of long wave oscillations: 50 

Hamiltonian:
  XC and Coulomb potentials evaluated on a 36*36*90 grid
  Using the PBE Exchange-Correlation functional
  External potential:
    NoExternalPotential
 

XC parameters: PBE with 2 nearest neighbor stencil

Memory estimate:
  Process memory now: 169.61 MiB
  Calculator: 83.61 MiB
    Density: 6.99 MiB
      Arrays: 2.89 MiB
      Localized functions: 2.98 MiB
      Mixer: 1.11 MiB
    Hamiltonian: 1.96 MiB
      Arrays: 1.89 MiB
      XC: 0.00 MiB
      Poisson: 0.00 MiB
      vbar: 0.07 MiB
    Wavefunctions: 74.66 MiB
      Arrays psit_nG: 49.35 MiB
      Eigensolver: 0.97 MiB
      Projections: 1.57 MiB
      Projectors: 19.86 MiB
      PW-descriptor: 2.91 MiB

Total number of cores used: 1

Number of atoms: 8
Number of atomic orbitals: 32
Number of bands in calculation: 21
Number of valence electrons: 28
Bands to converge: occupied

... initialized

Initializing position-dependent things.

Density initialized from atomic densities
Creating initial wave functions:
  21 bands from LCAO basis set

                      
                      
                      
                      
             O        
                      
           LiO        
                      
        Li            
                      
           O Li       
                      
           O          
        Li            
                      
                      
                      
                      

Positions:
   0 Li     0.000000    0.000000    3.851761    ( 0.0000,  0.0000,  0.0000)
   1 Li     0.000000    0.000000    0.000000    ( 0.0000,  0.0000,  0.0000)
   2 Li     1.590181   -0.918093    5.777642    ( 0.0000,  0.0000,  0.0000)
   3 Li     1.590181    0.918093    1.925881    ( 0.0000,  0.0000,  0.0000)
   4 O      1.590181   -0.918093    1.150213    ( 0.0000,  0.0000,  0.0000)
   5 O      1.590181    0.918093    5.001974    ( 0.0000,  0.0000,  0.0000)
   6 O      1.590181    0.918093    6.553309    ( 0.0000,  0.0000,  0.0000)
   7 O      1.590181   -0.918093    2.701548    ( 0.0000,  0.0000,  0.0000)

Unit cell:
           periodic     x           y           z      points  spacing
  1. axis:    yes    1.590181   -2.754274    0.000000    18     0.1530
  2. axis:    yes    1.590181    2.754274    0.000000    18     0.1530
  3. axis:    yes    0.000000    0.000000    7.703522    45     0.1712

  Lengths:   3.180362   3.180362   7.703522
  Angles:   90.000000  90.000000 119.999995

Effective grid spacing dv^(1/3) = 0.1666

     iter     time        total  log10-change:
                         energy  eigst   dens
iter:   1 19:28:57   -40.583559
iter:   2 19:29:07   -40.361060  -1.65  -0.89
iter:   3 19:29:17   -39.358065  -1.31  -0.92
iter:   4 19:29:27   -39.802825  -1.26  -1.26
iter:   5 19:29:36   -39.254434  -1.53  -1.29
iter:   6 19:29:46   -39.255394  -3.28  -2.06
iter:   7 19:29:56   -39.328580  -2.03  -2.08
iter:   8 19:30:06   -39.268546  -1.91  -1.73
iter:   9 19:30:16   -39.270721  -3.53  -2.01
iter:  10 19:30:26   -39.270741c -4.76c -2.00
iter:  11 19:30:37   -39.253226  -2.43  -2.00
iter:  12 19:30:48   -39.250250  -3.99  -2.46
iter:  13 19:30:59   -39.250266c -4.60c -3.18c

Converged after 13 iterations.

Dipole moment: (0.000000, -0.000000, -0.000000) |e|*Ang

Energy contributions relative to reference atoms: (reference = -8974.560486)

Kinetic:        +41.078132
Potential:      -39.074011
External:        +0.000000
XC:             -41.895951
Entropy (-ST):   -0.000008
Local:           +0.641567
--------------------------
Free energy:    -39.250270
Extrapolated:   -39.250266

Showing only first 2 kpts
 Kpt  Band  Eigenvalues  Occupancy
  0    12      2.64768    1.99999
  0    13      2.64787    1.99999
  0    14      4.72443    0.00027
  0    15      6.95325    0.00000

  1    12      2.63167    1.99999
  1    13      2.63186    1.99999
  1    14      4.88678    0.00005
  1    15      6.79509    0.00000


Fermi level: 3.83207

Gap: 2.068 eV
Transition (v -> c):
  (s=0, k=6, n=13, [0.17, -0.17, 0.00]) -> (s=0, k=0, n=14, [0.00, 0.00, 0.00])
Writing to /Users/gabrielbirnbaum/PycharmProjects/nanolithia/calculators/Li2O2-mp-841-PBE-6x6x6-600.gpw (mode='')

Timing:                              incl.     excl.
-----------------------------------------------------------
Hamiltonian:                         0.169     0.001   0.0% |
 Atomic:                             0.123     0.001   0.0% |
  XC Correction:                     0.122     0.122   0.0% |
 Calculate atomic Hamiltonians:      0.014     0.014   0.0% |
 Communicate:                        0.000     0.000   0.0% |
 Initialize Hamiltonian:             0.000     0.000   0.0% |
 Poisson:                            0.000     0.000   0.0% |
 XC 3D grid:                         0.031     0.031   0.0% |
LCAO initialization:                 9.598     0.029   0.0% |
 LCAO eigensolver:                   0.841     0.002   0.0% |
  Calculate projections:             0.004     0.004   0.0% |
  DenseAtomicCorrection:             0.014     0.014   0.0% |
  Distribute overlap matrix:         0.002     0.002   0.0% |
  Orbital Layouts:                   0.031     0.031   0.0% |
  Potential matrix:                  0.717     0.717   0.2% |
  Sum over cells:                    0.071     0.071   0.0% |
 LCAO to grid:                       7.325     7.325   2.0% ||
 Set positions (LCAO WFS):           1.403     0.201   0.1% |
  Basic WFS set positions:           0.001     0.001   0.0% |
  Basis functions set positions:     0.000     0.000   0.0% |
  P tci:                             0.499     0.499   0.1% |
  ST tci:                            0.651     0.651   0.2% |
  mktci:                             0.051     0.051   0.0% |
PWDescriptor:                        0.023     0.023   0.0% |
SCF-cycle:                         129.625     0.240   0.1% |
 Davidson:                         115.547     9.409   2.5% ||
  Apply H:                          24.964    24.572   6.6% |--|
   HMM T:                            0.392     0.392   0.1% |
  Subspace diag:                    26.510     0.056   0.0% |
   calc_h_matrix:                   25.711     0.541   0.1% |
    Apply H:                        25.170    24.875   6.7% |--|
     HMM T:                          0.295     0.295   0.1% |
   diagonalize:                      0.196     0.196   0.1% |
   rotate_psi:                       0.547     0.547   0.1% |
  calc. matrices:                   52.757     3.093   0.8% |
   Apply H:                         49.664    49.037  13.2% |----|
    HMM T:                           0.627     0.627   0.2% |
  diagonalize:                       0.892     0.892   0.2% |
  rotate_psi:                        1.015     1.015   0.3% |
 Density:                           11.343     0.000   0.0% |
  Atomic density matrices:           0.096     0.096   0.0% |
  Mix:                               0.338     0.338   0.1% |
  Multipole moments:                 0.002     0.002   0.0% |
  Pseudo density:                   10.907    10.890   2.9% ||
   Symmetrize density:               0.017     0.017   0.0% |
 Hamiltonian:                        2.306     0.012   0.0% |
  Atomic:                            1.692     0.011   0.0% |
   XC Correction:                    1.681     1.681   0.5% |
  Calculate atomic Hamiltonians:     0.201     0.201   0.1% |
  Communicate:                       0.000     0.000   0.0% |
  Poisson:                           0.005     0.005   0.0% |
  XC 3D grid:                        0.397     0.397   0.1% |
 Orthonormalize:                     0.189     0.004   0.0% |
  calc_s_matrix:                     0.033     0.033   0.0% |
  inverse-cholesky:                  0.005     0.005   0.0% |
  projections:                       0.127     0.127   0.0% |
  rotate_psi_s:                      0.020     0.020   0.0% |
Set symmetry:                        0.004     0.004   0.0% |
Other:                             232.320   232.320  62.5% |------------------------|
-----------------------------------------------------------
Total:                                       371.739 100.0%

Date: Sat Aug  6 19:34:44 2022
