
  ___ ___ ___ _ _ _  
 |   |   |_  | | | | 
 | | | | | . | | | | 
 |__ |  _|___|_____|  22.1.0
 |___|_|             

User:   gabrielbirnbaum@Gabriels-MacBook-Pro.local
Date:   Mon Jul 25 07:45:00 2022
Arch:   x86_64
Pid:    69738
Python: 3.9.13
gpaw:   /Users/gabrielbirnbaum/PycharmProjects/nanolithia/venv/lib/python3.9/site-packages/gpaw
_gpaw:  /Users/gabrielbirnbaum/PycharmProjects/nanolithia/venv/lib/python3.9/site-packages/
        _gpaw.cpython-39-darwin.so
ase:    /Users/gabrielbirnbaum/PycharmProjects/nanolithia/venv/lib/python3.9/site-packages/ase (version 3.22.1)
numpy:  /Users/gabrielbirnbaum/PycharmProjects/nanolithia/venv/lib/python3.9/site-packages/numpy (version 1.23.0)
scipy:  /Users/gabrielbirnbaum/PycharmProjects/nanolithia/venv/lib/python3.9/site-packages/scipy (version 1.8.1)
libxc:  5.2.3
units:  Angstrom and eV
cores: 1
OpenMP: False
OMP_NUM_THREADS: 1

Input parameters:
  convergence: {density: 0.001,
                eigenstates: 0.0001,
                energy: 0.0002}
  kpts: {gamma: True,
         size: (8, 8, 8)}
  mode: {ecut: 550.0,
         name: pw}
  setups: {O: :p,0.76,0}
  spinpol: False

System changes: positions, numbers, cell, pbc, initial_charges, initial_magmoms 

Initialize ...

Li-setup:
  name: Lithium
  id: b73562207f97a71b6967473b66fe8b65
  Z: 3.0
  valence: 1
  core: 2
  charge: 0.0
  file: /Users/gabrielbirnbaum/dft_learning/DIR/gpaw-setups-0.9.20000/Li.LDA.gz
  compensation charges: gauss, rc=0.33, lmax=2
  cutoffs: 1.91(filt), 2.55(core),
  valence states:
                energy  radius
    2s(1.00)    -2.874   1.058
    2p(0.00)    -1.126   1.058
    *s          24.338   1.058

  Using partial waves for Li as LCAO basis

O-setup:
  name: Oxygen
  id: 9b9d51c344dea68c822856295a461509
  Z: 8.0
  valence: 6
  core: 2
  charge: 0.0
  Hubbard U: 0.760000 eV (l=1, scale=False)
  file: /Users/gabrielbirnbaum/dft_learning/DIR/gpaw-setups-0.9.20000/O.LDA.gz
  compensation charges: gauss, rc=0.21, lmax=2
  cutoffs: 1.17(filt), 0.83(core),
  valence states:
                energy  radius
    2s(2.00)   -23.752   0.688
    2p(4.00)    -9.195   0.598
    *s           3.459   0.688
    *p          18.016   0.598
    *d           0.000   0.619

  Using partial waves for O as LCAO basis

Reference energy: -8910.067456

Spin-paired calculation

Convergence criteria:
 Maximum [total energy] change in last 3 cyles: 0.0002 eV / electron
 Maximum integral of absolute [dens]ity change: 0.001 electrons / valence electron
 Maximum integral of absolute [eigenst]ate change: 0.0001 eV^2 / valence electron
 Maximum number of scf [iter]ations: 333
 (Square brackets indicate name in SCF output, whereas a 'c' in
 the SCF output indicates the quantity has converged.)

Symmetries present (total): 4

  ( 1  0  0)  ( 0  1  0)  ( 0 -1  0)  (-1  0  0)
  ( 0  1  0)  ( 1  0  0)  (-1  0  0)  ( 0 -1  0)
  ( 0  0  1)  ( 0  0 -1)  ( 0  0  1)  ( 0  0 -1)

512 k-points: 8 x 8 x 8 Monkhorst-Pack grid + [1/16,1/16,1/16]
150 k-points in the irreducible part of the Brillouin zone
       k-points in crystal coordinates                weights
   0:     0.00000000    0.00000000    0.00000000          1/512
   1:     0.00000000    0.00000000    0.12500000          2/512
   2:     0.00000000    0.00000000    0.25000000          2/512
   3:     0.00000000    0.00000000    0.37500000          2/512
   4:     0.00000000    0.00000000    0.50000000          1/512
   5:     0.12500000   -0.12500000   -0.37500000          2/512
   6:     0.12500000   -0.12500000   -0.25000000          2/512
   7:     0.12500000   -0.12500000   -0.12500000          2/512
   8:     0.12500000   -0.12500000    0.00000000          2/512
   9:     0.12500000   -0.12500000    0.12500000          2/512
          ...
 149:     0.50000000    0.50000000    0.50000000          1/512

Wave functions: Plane wave expansion
  Cutoff energy: 550.000 eV
  Number of coefficients (min, max): 1943, 2002
  Pulay-stress correction: 0.000000 eV/Ang^3 (de/decut=0.000000)
  Using Numpy's FFT
  ScaLapack parameters: grid=1x1, blocksize=None
  Wavefunction extrapolation:
    Improved wavefunction reuse through dual PAW basis 

Occupation numbers: Fermi-Dirac: width=0.1000 eV
 

Eigensolver
   Davidson(niter=2) 

Densities:
  Coarse grid: 18*18*42 grid
  Fine grid: 36*36*84 grid
  Total Charge: 0.000000 

Density mixing:
  Method: separate
  Backend: pulay
  Linear mixing parameter: 0.05
  Mixing with 5 old densities
  Damping of long wave oscillations: 50 

Hamiltonian:
  XC and Coulomb potentials evaluated on a 36*36*84 grid
  Using the LDA Exchange-Correlation functional
  External potential:
    NoExternalPotential
 

Memory estimate:
  Process memory now: 768.24 MiB
  Calculator: 152.29 MiB
    Density: 6.36 MiB
      Arrays: 2.70 MiB
      Localized functions: 2.63 MiB
      Mixer: 1.04 MiB
    Hamiltonian: 1.83 MiB
      Arrays: 1.76 MiB
      XC: 0.00 MiB
      Poisson: 0.00 MiB
      vbar: 0.06 MiB
    Wavefunctions: 144.10 MiB
      Arrays psit_nG: 96.23 MiB
      Eigensolver: 0.86 MiB
      Projections: 3.46 MiB
      Projectors: 38.45 MiB
      PW-descriptor: 5.10 MiB

Total number of cores used: 1

Number of atoms: 8
Number of atomic orbitals: 32
Number of bands in calculation: 21
Number of valence electrons: 28
Bands to converge: occupied

... initialized

Initializing position-dependent things.

Density initialized from atomic densities
Creating initial wave functions:
  21 bands from LCAO basis set

                      
                      
                      
                      
             O        
                      
           LiO        
                      
        Li            
                      
           O Li       
                      
           O          
        Li            
                      
                      
                      
                      

Positions:
   0 Li     0.000000    0.000000    3.851761    ( 0.0000,  0.0000,  0.0000)
   1 Li     0.000000    0.000000    0.000000    ( 0.0000,  0.0000,  0.0000)
   2 Li     1.590181   -0.918093    5.777642    ( 0.0000,  0.0000,  0.0000)
   3 Li     1.590181    0.918093    1.925881    ( 0.0000,  0.0000,  0.0000)
   4 O      1.590181   -0.918093    1.150213    ( 0.0000,  0.0000,  0.0000)
   5 O      1.590181    0.918093    5.001974    ( 0.0000,  0.0000,  0.0000)
   6 O      1.590181    0.918093    6.553309    ( 0.0000,  0.0000,  0.0000)
   7 O      1.590181   -0.918093    2.701548    ( 0.0000,  0.0000,  0.0000)

Unit cell:
           periodic     x           y           z      points  spacing
  1. axis:    yes    1.590181   -2.754274    0.000000    18     0.1530
  2. axis:    yes    1.590181    2.754274    0.000000    18     0.1530
  3. axis:    yes    0.000000    0.000000    7.703522    42     0.1834

  Lengths:   3.180362   3.180362   7.703522
  Angles:   90.000000  90.000000 119.999995

Effective grid spacing dv^(1/3) = 0.1705

     iter     time        total  log10-change:
                         energy  eigst   dens
iter:   1 07:45:40   -41.844140
iter:   2 07:46:01   -41.664857  -1.67  -0.90
iter:   3 07:46:23   -40.773435  -1.41  -0.94
iter:   4 07:46:45   -41.007378  -1.40  -1.28
iter:   5 07:47:08   -40.613634  -1.59  -1.36
iter:   6 07:47:32   -40.614196  -3.39  -2.13
iter:   7 07:47:54   -40.654440  -2.30  -2.14
iter:   8 07:48:17   -40.609129  -2.70  -1.82
iter:   9 07:48:39   -40.608597  -4.09c -2.46
iter:  10 07:49:01   -40.609108c -3.46  -2.57
iter:  11 07:49:24   -40.607917c -4.36c -2.64
iter:  12 07:49:46   -40.607891c -5.25c -3.40c

Converged after 12 iterations.

Dipole moment: (0.000000, -0.000000, -0.000000) |e|*Ang

Energy contributions relative to reference atoms: (reference = -8910.067456)

Kinetic:        +34.504512
Potential:      -32.964656
External:        +0.000000
XC:             -42.569179
Entropy (-ST):   -0.000013
Local:           +0.421440
--------------------------
Free energy:    -40.607897
Extrapolated:   -40.607891

Showing only first 2 kpts
 Kpt  Band  Eigenvalues  Occupancy
  0    12      2.30638    1.99997
  0    13      2.30641    1.99997
  0    14      4.25043    0.00052
  0    15      6.50691    0.00000

  1    12      2.29873    1.99997
  1    13      2.29876    1.99997
  1    14      4.34616    0.00020
  1    15      6.40696    0.00000


Fermi level: 3.42434

Gap: 1.927 eV
Transition (v -> c):
  (s=0, k=16, n=13, [0.12, 0.00, 0.00]) -> (s=0, k=0, n=14, [0.00, 0.00, 0.00])
Timing:                              incl.     excl.
-----------------------------------------------------------
Hamiltonian:                         0.071     0.002   0.0% |
 Atomic:                             0.047     0.002   0.0% |
  XC Correction:                     0.045     0.045   0.0% |
 Calculate atomic Hamiltonians:      0.010     0.010   0.0% |
 Communicate:                        0.000     0.000   0.0% |
 Initialize Hamiltonian:             0.000     0.000   0.0% |
 Poisson:                            0.000     0.000   0.0% |
 XC 3D grid:                         0.012     0.012   0.0% |
LCAO initialization:                19.854     0.147   0.1% |
 LCAO eigensolver:                   1.099     0.005   0.0% |
  Calculate projections:             0.010     0.010   0.0% |
  DenseAtomicCorrection:             0.034     0.034   0.0% |
  Distribute overlap matrix:         0.003     0.003   0.0% |
  Orbital Layouts:                   0.087     0.087   0.0% |
  Potential matrix:                  0.808     0.808   0.3% |
  Sum over cells:                    0.151     0.151   0.1% |
 LCAO to grid:                      15.333    15.333   5.3% |-|
 Set positions (LCAO WFS):           3.275     0.458   0.2% |
  Basic WFS set positions:           0.001     0.001   0.0% |
  Basis functions set positions:     0.000     0.000   0.0% |
  P tci:                             1.225     1.225   0.4% |
  ST tci:                            1.548     1.548   0.5% |
  mktci:                             0.043     0.043   0.0% |
PWDescriptor:                        0.122     0.122   0.0% |
SCF-cycle:                         265.740     0.445   0.2% |
 Davidson:                         241.440    16.587   5.8% |-|
  Apply H:                          55.670    55.133  19.2% |-------|
   HMM T:                            0.537     0.537   0.2% |
  Subspace diag:                    56.085     0.123   0.0% |
   calc_h_matrix:                   54.445     1.103   0.4% |
    Apply H:                        53.341    52.797  18.4% |------|
     HMM T:                          0.544     0.544   0.2% |
   diagonalize:                      0.433     0.433   0.2% |
   rotate_psi:                       1.084     1.084   0.4% |
  calc. matrices:                  108.964     7.977   2.8% ||
   Apply H:                        100.987    99.932  34.8% |-------------|
    HMM T:                           1.054     1.054   0.4% |
  diagonalize:                       2.127     2.127   0.7% |
  rotate_psi:                        2.008     2.008   0.7% |
 Density:                           22.399     0.000   0.0% |
  Atomic density matrices:           0.189     0.189   0.1% |
  Mix:                               0.256     0.256   0.1% |
  Multipole moments:                 0.002     0.002   0.0% |
  Pseudo density:                   21.952    21.938   7.6% |--|
   Symmetrize density:               0.014     0.014   0.0% |
 Hamiltonian:                        1.006     0.016   0.0% |
  Atomic:                            0.688     0.033   0.0% |
   XC Correction:                    0.655     0.655   0.2% |
  Calculate atomic Hamiltonians:     0.149     0.149   0.1% |
  Communicate:                       0.000     0.000   0.0% |
  Poisson:                           0.004     0.004   0.0% |
  XC 3D grid:                        0.149     0.149   0.1% |
 Orthonormalize:                     0.450     0.010   0.0% |
  calc_s_matrix:                     0.148     0.148   0.1% |
  inverse-cholesky:                  0.012     0.012   0.0% |
  projections:                       0.237     0.237   0.1% |
  rotate_psi_s:                      0.043     0.043   0.0% |
Set symmetry:                        0.011     0.011   0.0% |
Other:                               0.984     0.984   0.3% |
-----------------------------------------------------------
Total:                                       286.781 100.0%

Memory usage: 807.08 MiB
Date: Mon Jul 25 07:49:46 2022
