
  ___ ___ ___ _ _ _  
 |   |   |_  | | | | 
 | | | | | . | | | | 
 |__ |  _|___|_____|  22.1.0
 |___|_|             

User:   gabrielbirnbaum@Gabriels-MacBook-Pro.local
Date:   Mon Aug  8 10:01:20 2022
Arch:   x86_64
Pid:    46886
Python: 3.9.13
gpaw:   /Users/gabrielbirnbaum/PycharmProjects/nanolithia/venv/lib/python3.9/site-packages/gpaw
_gpaw:  /Users/gabrielbirnbaum/PycharmProjects/nanolithia/venv/lib/python3.9/site-packages/
        _gpaw.cpython-39-darwin.so
ase:    /Users/gabrielbirnbaum/PycharmProjects/nanolithia/venv/lib/python3.9/site-packages/ase (version 3.22.1)
numpy:  /Users/gabrielbirnbaum/PycharmProjects/nanolithia/venv/lib/python3.9/site-packages/numpy (version 1.23.0)
scipy:  /Users/gabrielbirnbaum/PycharmProjects/nanolithia/venv/lib/python3.9/site-packages/scipy (version 1.8.1)
libxc:  5.2.3
units:  Angstrom and eV
cores: 1
OpenMP: False
OMP_NUM_THREADS: 1

Input parameters:
  kpts: {gamma: True,
         size: (5, 5, 7)}
  mode: {ecut: 900.0000000000001,
         name: pw}
  xc: PBE

System changes: positions, numbers, cell, pbc, initial_charges, initial_magmoms 

Initialize ...

Li-setup:
  name: Lithium
  id: 830b4218f175192f93f959cfc0aad614
  Z: 3.0
  valence: 1
  core: 2
  charge: 0.0
  file: /Users/gabrielbirnbaum/PycharmProjects/nanolithia/venv/lib/python3.9/site-packages/ase/vibrations/setups/gpaw-setups-0.9.20000/Li.PBE.gz
  compensation charges: gauss, rc=0.33, lmax=2
  cutoffs: 1.91(filt), 2.55(core),
  valence states:
                energy  radius
    2s(1.00)    -2.874   1.058
    2p(0.00)    -1.090   1.058
    *s          24.337   1.058

  Using partial waves for Li as LCAO basis

O-setup:
  name: Oxygen
  id: 32ecd46bf208036f09c70b0ec9a88b78
  Z: 8.0
  valence: 6
  core: 2
  charge: 0.0
  file: /Users/gabrielbirnbaum/PycharmProjects/nanolithia/venv/lib/python3.9/site-packages/ase/vibrations/setups/gpaw-setups-0.9.20000/O.PBE.gz
  compensation charges: gauss, rc=0.21, lmax=2
  cutoffs: 1.17(filt), 0.83(core),
  valence states:
                energy  radius
    2s(2.00)   -23.961   0.688
    2p(4.00)    -9.029   0.598
    *s           3.251   0.688
    *p          18.182   0.598
    *d           0.000   0.619

  Using partial waves for O as LCAO basis

Reference energy: -2446.427942

Spin-polarized calculation.
Magnetic moment: 1.800000

Convergence criteria:
 Maximum [total energy] change in last 3 cyles: 0.0005 eV / electron
 Maximum integral of absolute [dens]ity change: 0.0001 electrons / valence electron
 Maximum integral of absolute [eigenst]ate change: 4e-08 eV^2 / valence electron
 Maximum number of scf [iter]ations: 333
 (Square brackets indicate name in SCF output, whereas a 'c' in
 the SCF output indicates the quantity has converged.)

Symmetries present (total): 48

  ( 1  0  0)  ( 1  0  0)  ( 1  0  0)  ( 1  0  0)  ( 1  0 -1)  ( 1  0 -1)
  ( 1  0 -1)  ( 1 -1  0)  ( 0  1  0)  ( 0  0  1)  ( 1  0  0)  ( 1 -1  0)
  ( 1 -1  0)  ( 1  0 -1)  ( 0  0  1)  ( 0  1  0)  ( 1 -1  0)  ( 1  0  0)

  ( 1  0 -1)  ( 1  0 -1)  ( 1 -1  0)  ( 1 -1  0)  ( 1 -1  0)  ( 1 -1  0)
  ( 0  1 -1)  ( 0  0 -1)  ( 1  0  0)  ( 1  0 -1)  ( 0 -1  1)  ( 0 -1  0)
  ( 0  0 -1)  ( 0  1 -1)  ( 1  0 -1)  ( 1  0  0)  ( 0 -1  0)  ( 0 -1  1)

  ( 0  1  0)  ( 0  1  0)  ( 0  1  0)  ( 0  1  0)  ( 0  1 -1)  ( 0  1 -1)
  ( 1  0  0)  ( 0  1 -1)  ( 0  0  1)  (-1  1  0)  ( 1  0 -1)  ( 0  1  0)
  ( 0  0  1)  (-1  1  0)  ( 1  0  0)  ( 0  1 -1)  ( 0  0 -1)  (-1  1  0)

  ( 0  1 -1)  ( 0  1 -1)  ( 0  0  1)  ( 0  0  1)  ( 0  0  1)  ( 0  0  1)
  ( 0  0 -1)  (-1  1  0)  ( 1  0  0)  ( 0  1  0)  ( 0 -1  1)  (-1  0  1)
  ( 1  0 -1)  ( 0  1  0)  ( 0  1  0)  ( 1  0  0)  (-1  0  1)  ( 0 -1  1)

  ( 0  0 -1)  ( 0  0 -1)  ( 0  0 -1)  ( 0  0 -1)  ( 0 -1  1)  ( 0 -1  1)
  ( 1  0 -1)  ( 0  1 -1)  ( 0 -1  0)  (-1  0  0)  ( 1 -1  0)  ( 0  0  1)
  ( 0  1 -1)  ( 1  0 -1)  (-1  0  0)  ( 0 -1  0)  ( 0 -1  0)  (-1  0  1)

  ( 0 -1  1)  ( 0 -1  1)  ( 0 -1  0)  ( 0 -1  0)  ( 0 -1  0)  ( 0 -1  0)
  ( 0 -1  0)  (-1  0  1)  ( 1 -1  0)  ( 0  0 -1)  ( 0 -1  1)  (-1  0  0)
  ( 1 -1  0)  ( 0  0  1)  ( 0 -1  1)  (-1  0  0)  ( 1 -1  0)  ( 0  0 -1)

  (-1  1  0)  (-1  1  0)  (-1  1  0)  (-1  1  0)  (-1  0  1)  (-1  0  1)
  ( 0  1  0)  ( 0  1 -1)  (-1  0  1)  (-1  0  0)  ( 0  0  1)  ( 0 -1  1)
  ( 0  1 -1)  ( 0  1  0)  (-1  0  0)  (-1  0  1)  ( 0 -1  1)  ( 0  0  1)

  (-1  0  1)  (-1  0  1)  (-1  0  0)  (-1  0  0)  (-1  0  0)  (-1  0  0)
  (-1  1  0)  (-1  0  0)  ( 0  0 -1)  ( 0 -1  0)  (-1  1  0)  (-1  0  1)
  (-1  0  0)  (-1  1  0)  ( 0 -1  0)  ( 0  0 -1)  (-1  0  1)  (-1  1  0)
Note: your k-points are not as symmetric as your crystal!

175 k-points: 5 x 5 x 7 Monkhorst-Pack grid
54 k-points in the irreducible part of the Brillouin zone
       k-points in crystal coordinates                weights
   0:     0.00000000    0.00000000    0.00000000          1/175
   1:     0.00000000    0.00000000    0.14285714          2/175
   2:     0.00000000    0.00000000    0.28571429          2/175
   3:     0.00000000    0.00000000    0.42857143          2/175
   4:     0.20000000   -0.20000000    0.00000000          2/175
   5:     0.20000000   -0.20000000    0.14285714          4/175
   6:     0.20000000   -0.20000000    0.28571429          4/175
   7:     0.20000000   -0.20000000    0.42857143          4/175
   8:     0.20000000    0.00000000   -0.42857143          4/175
   9:     0.20000000    0.00000000   -0.28571429          4/175
          ...
  53:     0.40000000    0.40000000    0.42857143          2/175

Wave functions: Plane wave expansion
  Cutoff energy: 900.000 eV
  Number of coefficients (min, max): 1471, 1568
  Pulay-stress correction: 0.000000 eV/Ang^3 (de/decut=0.000000)
  Using Numpy's FFT
  ScaLapack parameters: grid=1x1, blocksize=None
  Wavefunction extrapolation:
    Improved wavefunction reuse through dual PAW basis 

Occupation numbers: Fermi-Dirac: width=0.1000 eV
 

Eigensolver
   Davidson(niter=2) 

Densities:
  Coarse grid: 24*24*24 grid
  Fine grid: 48*48*48 grid
  Total Charge: 0.000000 

Density mixing:
  Method: difference
  Backend: pulay
  Linear mixing parameter: 0.05
  Mixing with 5 old densities
  Damping of long wave oscillations: 50 

Hamiltonian:
  XC and Coulomb potentials evaluated on a 48*48*48 grid
  Using the PBE Exchange-Correlation functional
  External potential:
    NoExternalPotential
 

XC parameters: PBE with 2 nearest neighbor stencil

Memory estimate:
  Process memory now: 121.05 MiB
  Calculator: 49.27 MiB
    Density: 7.22 MiB
      Arrays: 3.69 MiB
      Localized functions: 2.06 MiB
      Mixer: 1.48 MiB
    Hamiltonian: 2.79 MiB
      Arrays: 2.74 MiB
      XC: 0.00 MiB
      Poisson: 0.00 MiB
      vbar: 0.05 MiB
    Wavefunctions: 39.26 MiB
      Arrays psit_nG: 25.84 MiB
      Eigensolver: 0.37 MiB
      Projections: 0.38 MiB
      Projectors: 10.85 MiB
      PW-descriptor: 1.82 MiB

Total number of cores used: 1

Number of atoms: 3
Number of atomic orbitals: 12
Number of bands in calculation: 10
Number of valence electrons: 8
Bands to converge: occupied

... initialized

Initializing position-dependent things.

Density initialized from atomic densities
Creating initial wave functions:
  10 bands from LCAO basis set

                              
                              
                              
                     Li       
                              
                              
            Li                
                              
       O                      
                              
                              
                              

Positions:
   0 Li     4.941448    2.852946    2.017338    ( 0.0000,  0.0000,  0.6000)
   1 Li     1.647149    0.950982    0.672446    ( 0.0000,  0.0000,  0.6000)
   2 O      0.000000    0.000000    0.000000    ( 0.0000,  0.0000,  0.6000)

Unit cell:
           periodic     x           y           z      points  spacing
  1. axis:    yes    3.294299    0.000000    0.000000    24     0.1121
  2. axis:    yes    1.647149    2.852946    0.000000    24     0.1121
  3. axis:    yes    1.647149    0.950982    2.689784    24     0.1121

  Lengths:   3.294299   3.294299   3.294299
  Angles:   60.000000  60.000000  60.000000

Effective grid spacing dv^(1/3) = 0.1223

     iter     time        total  log10-change:  magmom
                         energy  eigst   dens
iter:   1 10:02:54   -14.785016                  +1.7246
iter:   2 10:03:00   -14.983258  -1.98  -0.78    +0.5174
iter:   3 10:03:07   -14.528203  -1.74  -0.83    -0.0007
iter:   4 10:03:14   -14.776174  -1.30  -1.02    -0.0005
iter:   5 10:03:21   -14.434925  -1.37  -1.07    -0.0001
iter:   6 10:03:28   -14.441452  -3.17  -1.78    -0.0000
iter:   7 10:03:35   -14.441365  -4.83  -2.02    +0.0000
iter:   8 10:03:42   -14.438955c -3.87  -2.00    +0.0000
iter:   9 10:03:49   -14.438930c -5.22  -2.91    +0.0000
iter:  10 10:03:56   -14.438931c -7.07  -3.92    +0.0000
iter:  11 10:04:03   -14.438931c -6.38  -3.88    -0.0000
iter:  12 10:04:09   -14.438931c -7.55c -3.97    -0.0000
iter:  13 10:04:16   -14.438931c -8.07c -4.64c   +0.0000

Converged after 13 iterations.

Dipole moment: (-0.000000, -0.000000, 0.000000) |e|*Ang

Total magnetic moment: (0.000000, 0.000000, 0.000000)
Local magnetic moments:
   0 Li ( 0.000000,  0.000000, -0.000000)
   1 Li ( 0.000000,  0.000000, -0.000000)
   2 O  ( 0.000000,  0.000000, -0.000000)

Energy contributions relative to reference atoms: (reference = -2446.427942)

Kinetic:        +15.982314
Potential:      -14.736541
External:        +0.000000
XC:             -15.924310
Entropy (-ST):   -0.000000
Local:           +0.239606
--------------------------
Free energy:    -14.438931
Extrapolated:   -14.438931

Spin contamination: 0.000000 electrons
Showing only first 2 kpts
                      Up                     Down
 Kpt  Band  Eigenvalues  Occupancy  Eigenvalues  Occupancy
  0     2      1.21963    1.00000      1.21963    1.00000
  0     3      1.21963    1.00000      1.21963    1.00000
  0     4      6.28694    0.00000      6.28694    0.00000
  0     5     13.02997    0.00000     13.02997    0.00000

  1     2      1.12953    1.00000      1.12953    1.00000
  1     3      1.12953    1.00000      1.12953    1.00000
  1     4      6.82390    0.00000      6.82390    0.00000
  1     5     13.01553    0.00000     13.01553    0.00000


Fermi level: 4.21739

Gap: 5.067 eV
Transition (v -> c):
  (s=0, k=0, n=3, [0.00, 0.00, 0.00]) -> (s=0, k=0, n=4, [0.00, 0.00, 0.00])
Writing to /Users/gabrielbirnbaum/PycharmProjects/nanolithia/calculators/Li2O-mp-1960-PBE-900-{'size': (5, 5, 7), 'gamma': True}.gpw (mode='')

Timing:                              incl.     excl.
-----------------------------------------------------------
Hamiltonian:                         0.165     0.001   0.0% |
 Atomic:                             0.086     0.000   0.0% |
  XC Correction:                     0.085     0.085   0.0% |
 Calculate atomic Hamiltonians:      0.004     0.004   0.0% |
 Communicate:                        0.000     0.000   0.0% |
 Initialize Hamiltonian:             0.000     0.000   0.0% |
 Poisson:                            0.000     0.000   0.0% |
 XC 3D grid:                         0.074     0.074   0.0% |
LCAO initialization:                87.203     0.042   0.0% |
 LCAO eigensolver:                  82.962     0.005   0.0% |
  Calculate projections:             0.003     0.003   0.0% |
  DenseAtomicCorrection:             0.013     0.013   0.0% |
  Distribute overlap matrix:         0.003     0.003   0.0% |
  Orbital Layouts:                   0.025     0.025   0.0% |
  Potential matrix:                 82.866    82.866  46.7% |------------------|
  Sum over cells:                    0.047     0.047   0.0% |
 LCAO to grid:                       3.697     3.697   2.1% ||
 Set positions (LCAO WFS):           0.503     0.084   0.0% |
  Basic WFS set positions:           0.003     0.003   0.0% |
  Basis functions set positions:     0.000     0.000   0.0% |
  P tci:                             0.157     0.157   0.1% |
  ST tci:                            0.229     0.229   0.1% |
  mktci:                             0.030     0.030   0.0% |
PWDescriptor:                        0.019     0.019   0.0% |
SCF-cycle:                          88.635     0.183   0.1% |
 Davidson:                          77.903     3.767   2.1% ||
  Apply H:                          17.309    17.112   9.6% |---|
   HMM T:                            0.196     0.196   0.1% |
  Subspace diag:                    18.372     0.087   0.0% |
   calc_h_matrix:                   17.827     0.419   0.2% |
    Apply H:                        17.408    17.208   9.7% |---|
     HMM T:                          0.200     0.200   0.1% |
   diagonalize:                      0.204     0.204   0.1% |
   rotate_psi:                       0.255     0.255   0.1% |
  calc. matrices:                   37.458     2.894   1.6% ||
   Apply H:                         34.564    34.177  19.3% |-------|
    HMM T:                           0.387     0.387   0.2% |
  diagonalize:                       0.615     0.615   0.3% |
  rotate_psi:                        0.382     0.382   0.2% |
 Density:                            8.147     0.000   0.0% |
  Atomic density matrices:           0.074     0.074   0.0% |
  Mix:                               0.201     0.201   0.1% |
  Multipole moments:                 0.001     0.001   0.0% |
  Pseudo density:                    7.870     7.504   4.2% |-|
   Symmetrize density:               0.366     0.366   0.2% |
 Hamiltonian:                        2.318     0.014   0.0% |
  Atomic:                            1.112     0.006   0.0% |
   XC Correction:                    1.106     1.106   0.6% |
  Calculate atomic Hamiltonians:     0.039     0.039   0.0% |
  Communicate:                       0.000     0.000   0.0% |
  Poisson:                           0.003     0.003   0.0% |
  XC 3D grid:                        1.149     1.149   0.6% |
 Orthonormalize:                     0.084     0.006   0.0% |
  calc_s_matrix:                     0.021     0.021   0.0% |
  inverse-cholesky:                  0.009     0.009   0.0% |
  projections:                       0.040     0.040   0.0% |
  rotate_psi_s:                      0.008     0.008   0.0% |
Set symmetry:                        0.021     0.021   0.0% |
Other:                               1.300     1.300   0.7% |
-----------------------------------------------------------
Total:                                       177.344 100.0%

Memory usage: 346.59 MiB
Date: Mon Aug  8 10:04:17 2022
