
  ___ ___ ___ _ _ _  
 |   |   |_  | | | | 
 | | | | | . | | | | 
 |__ |  _|___|_____|  22.1.0
 |___|_|             

User:   gabrielbirnbaum@Gabriels-MacBook-Pro.local
Date:   Sat Aug  6 21:37:16 2022
Arch:   x86_64
Pid:    6664
Python: 3.9.13
gpaw:   /Users/gabrielbirnbaum/PycharmProjects/nanolithia/venv/lib/python3.9/site-packages/gpaw
_gpaw:  /Users/gabrielbirnbaum/PycharmProjects/nanolithia/venv/lib/python3.9/site-packages/
        _gpaw.cpython-39-darwin.so
ase:    /Users/gabrielbirnbaum/PycharmProjects/nanolithia/venv/lib/python3.9/site-packages/ase (version 3.22.1)
numpy:  /Users/gabrielbirnbaum/PycharmProjects/nanolithia/venv/lib/python3.9/site-packages/numpy (version 1.23.0)
scipy:  /Users/gabrielbirnbaum/PycharmProjects/nanolithia/venv/lib/python3.9/site-packages/scipy (version 1.8.1)
libxc:  5.2.3
units:  Angstrom and eV
cores: 1
OpenMP: False
OMP_NUM_THREADS: 1

Input parameters:
  convergence: {density: 0.001,
                eigenstates: 0.0001,
                energy: 0.0002}
  kpts: {gamma: True,
         size: (6, 6, 6)}
  mode: {ecut: 900.0000000000001,
         name: pw}
  spinpol: False
  xc: PBE

System changes: positions, numbers, cell, pbc, initial_charges, initial_magmoms 

Initialize ...

Li-setup:
  name: Lithium
  id: 830b4218f175192f93f959cfc0aad614
  Z: 3.0
  valence: 1
  core: 2
  charge: 0.0
  file: /Users/gabrielbirnbaum/dft_learning/DIR/gpaw-setups-0.9.20000/Li.PBE.gz
  compensation charges: gauss, rc=0.33, lmax=2
  cutoffs: 1.91(filt), 2.55(core),
  valence states:
                energy  radius
    2s(1.00)    -2.874   1.058
    2p(0.00)    -1.090   1.058
    *s          24.337   1.058

  Using partial waves for Li as LCAO basis

O-setup:
  name: Oxygen
  id: 32ecd46bf208036f09c70b0ec9a88b78
  Z: 8.0
  valence: 6
  core: 2
  charge: 0.0
  file: /Users/gabrielbirnbaum/dft_learning/DIR/gpaw-setups-0.9.20000/O.PBE.gz
  compensation charges: gauss, rc=0.21, lmax=2
  cutoffs: 1.17(filt), 0.83(core),
  valence states:
                energy  radius
    2s(2.00)   -23.961   0.688
    2p(4.00)    -9.029   0.598
    *s           3.251   0.688
    *p          18.182   0.598
    *d           0.000   0.619

  Using partial waves for O as LCAO basis

Reference energy: -8974.560486

Spin-paired calculation

Convergence criteria:
 Maximum [total energy] change in last 3 cyles: 0.0002 eV / electron
 Maximum integral of absolute [dens]ity change: 0.001 electrons / valence electron
 Maximum integral of absolute [eigenst]ate change: 0.0001 eV^2 / valence electron
 Maximum number of scf [iter]ations: 333
 (Square brackets indicate name in SCF output, whereas a 'c' in
 the SCF output indicates the quantity has converged.)

Symmetries present (total): 4

  ( 1  0  0)  ( 0  1  0)  ( 0 -1  0)  (-1  0  0)
  ( 0  1  0)  ( 1  0  0)  (-1  0  0)  ( 0 -1  0)
  ( 0  0  1)  ( 0  0 -1)  ( 0  0  1)  ( 0  0 -1)

216 k-points: 6 x 6 x 6 Monkhorst-Pack grid + [1/12,1/12,1/12]
68 k-points in the irreducible part of the Brillouin zone
       k-points in crystal coordinates                weights
   0:     0.00000000    0.00000000    0.00000000          1/216
   1:     0.00000000    0.00000000    0.16666667          2/216
   2:     0.00000000    0.00000000    0.33333333          2/216
   3:     0.00000000    0.00000000    0.50000000          1/216
   4:     0.16666667   -0.16666667   -0.33333333          2/216
   5:     0.16666667   -0.16666667   -0.16666667          2/216
   6:     0.16666667   -0.16666667    0.00000000          2/216
   7:     0.16666667   -0.16666667    0.16666667          2/216
   8:     0.16666667   -0.16666667    0.33333333          2/216
   9:     0.16666667   -0.16666667    0.50000000          2/216
          ...
  67:     0.50000000    0.50000000    0.50000000          1/216

Wave functions: Plane wave expansion
  Cutoff energy: 900.000 eV
  Number of coefficients (min, max): 4120, 4164
  Pulay-stress correction: 0.000000 eV/Ang^3 (de/decut=0.000000)
  Using Numpy's FFT
  ScaLapack parameters: grid=1x1, blocksize=None
  Wavefunction extrapolation:
    Improved wavefunction reuse through dual PAW basis 

Occupation numbers: Fermi-Dirac: width=0.1000 eV
 

Eigensolver
   Davidson(niter=2) 

Densities:
  Coarse grid: 24*24*54 grid
  Fine grid: 48*48*108 grid
  Total Charge: 0.000000 

Density mixing:
  Method: separate
  Backend: pulay
  Linear mixing parameter: 0.05
  Mixing with 5 old densities
  Damping of long wave oscillations: 50 

Hamiltonian:
  XC and Coulomb potentials evaluated on a 48*48*108 grid
  Using the PBE Exchange-Correlation functional
  External potential:
    NoExternalPotential
 

XC parameters: PBE with 2 nearest neighbor stencil

Memory estimate:
  Process memory now: 226.59 MiB
  Calculator: 154.21 MiB
    Density: 14.02 MiB
      Arrays: 6.17 MiB
      Localized functions: 5.48 MiB
      Mixer: 2.37 MiB
    Hamiltonian: 4.17 MiB
      Arrays: 4.03 MiB
      XC: 0.00 MiB
      Poisson: 0.00 MiB
      vbar: 0.13 MiB
    Wavefunctions: 136.02 MiB
      Arrays psit_nG: 90.73 MiB
      Eigensolver: 1.72 MiB
      Projections: 1.57 MiB
      Projectors: 36.49 MiB
      PW-descriptor: 5.51 MiB

Total number of cores used: 1

Number of atoms: 8
Number of atomic orbitals: 32
Number of bands in calculation: 21
Number of valence electrons: 28
Bands to converge: occupied

... initialized

Initializing position-dependent things.

Density initialized from atomic densities
Creating initial wave functions:
  21 bands from LCAO basis set

                      
                      
                      
                      
             O        
                      
           LiO        
                      
        Li            
                      
           O Li       
                      
           O          
        Li            
                      
                      
                      
                      

Positions:
   0 Li     0.000000    0.000000    3.851761    ( 0.0000,  0.0000,  0.0000)
   1 Li     0.000000    0.000000    0.000000    ( 0.0000,  0.0000,  0.0000)
   2 Li     1.590181   -0.918093    5.777642    ( 0.0000,  0.0000,  0.0000)
   3 Li     1.590181    0.918093    1.925881    ( 0.0000,  0.0000,  0.0000)
   4 O      1.590181   -0.918093    1.150213    ( 0.0000,  0.0000,  0.0000)
   5 O      1.590181    0.918093    5.001974    ( 0.0000,  0.0000,  0.0000)
   6 O      1.590181    0.918093    6.553309    ( 0.0000,  0.0000,  0.0000)
   7 O      1.590181   -0.918093    2.701548    ( 0.0000,  0.0000,  0.0000)

Unit cell:
           periodic     x           y           z      points  spacing
  1. axis:    yes    1.590181   -2.754274    0.000000    24     0.1148
  2. axis:    yes    1.590181    2.754274    0.000000    24     0.1148
  3. axis:    yes    0.000000    0.000000    7.703522    54     0.1427

  Lengths:   3.180362   3.180362   7.703522
  Angles:   90.000000  90.000000 119.999995

Effective grid spacing dv^(1/3) = 0.1295

     iter     time        total  log10-change:
                         energy  eigst   dens
iter:   1 21:38:02   -40.920585
iter:   2 21:38:21   -40.695698  -1.55  -0.89
iter:   3 21:38:40   -39.688542  -1.22  -0.93
iter:   4 21:39:00   -40.182080  -1.17  -1.25
iter:   5 21:39:19   -39.584188  -1.28  -1.28
iter:   6 21:39:38   -39.585446  -3.11  -2.09
iter:   7 21:39:56   -39.653611  -1.98  -2.11
iter:   8 21:40:15   -39.607394  -1.71  -1.75
iter:   9 21:40:34   -39.600546  -3.91  -1.96
iter:  10 21:40:53   -39.600223  -5.23c -2.03
iter:  11 21:41:12   -39.582789  -2.40  -2.03
iter:  12 21:41:31   -39.582058  -4.58c -2.76
iter:  13 21:41:50   -39.582172c -4.37c -3.23c

Converged after 13 iterations.

Dipole moment: (0.000000, 0.000000, -0.000000) |e|*Ang

Energy contributions relative to reference atoms: (reference = -8974.560486)

Kinetic:        +44.297204
Potential:      -42.778915
External:        +0.000000
XC:             -42.049399
Entropy (-ST):   -0.000008
Local:           +0.948943
--------------------------
Free energy:    -39.582175
Extrapolated:   -39.582172

Showing only first 2 kpts
 Kpt  Band  Eigenvalues  Occupancy
  0    12      2.65089    1.99999
  0    13      2.65090    1.99999
  0    14      4.73042    0.00026
  0    15      6.96229    0.00000

  1    12      2.63533    1.99999
  1    13      2.63533    1.99999
  1    14      4.89136    0.00005
  1    15      6.80085    0.00000


Fermi level: 3.83615

Gap: 2.073 eV
Transition (v -> c):
  (s=0, k=6, n=13, [0.17, -0.17, 0.00]) -> (s=0, k=0, n=14, [0.00, 0.00, 0.00])
Writing to /Users/gabrielbirnbaum/PycharmProjects/nanolithia/calculators/Li2O2-mp-841-PBE-6x6x6-900.gpw (mode='')

Timing:                              incl.     excl.
-----------------------------------------------------------
Hamiltonian:                         0.209     0.001   0.0% |
 Atomic:                             0.128     0.001   0.0% |
  XC Correction:                     0.127     0.127   0.0% |
 Calculate atomic Hamiltonians:      0.015     0.015   0.0% |
 Communicate:                        0.000     0.000   0.0% |
 Initialize Hamiltonian:             0.000     0.000   0.0% |
 Poisson:                            0.001     0.001   0.0% |
 XC 3D grid:                         0.064     0.064   0.0% |
LCAO initialization:                17.348     0.040   0.0% |
 LCAO eigensolver:                   1.727     0.002   0.0% |
  Calculate projections:             0.005     0.005   0.0% |
  DenseAtomicCorrection:             0.015     0.015   0.0% |
  Distribute overlap matrix:         0.002     0.002   0.0% |
  Orbital Layouts:                   0.032     0.032   0.0% |
  Potential matrix:                  1.609     1.609   0.2% |
  Sum over cells:                    0.063     0.063   0.0% |
 LCAO to grid:                      14.093    14.093   2.1% ||
 Set positions (LCAO WFS):           1.487     0.210   0.0% |
  Basic WFS set positions:           0.001     0.001   0.0% |
  Basis functions set positions:     0.000     0.000   0.0% |
  P tci:                             0.554     0.554   0.1% |
  ST tci:                            0.667     0.667   0.1% |
  mktci:                             0.055     0.055   0.0% |
PWDescriptor:                        0.055     0.055   0.0% |
SCF-cycle:                         244.252     0.248   0.0% |
 Davidson:                         219.574    15.554   2.3% ||
  Apply H:                          47.840    47.346   7.1% |--|
   HMM T:                            0.495     0.495   0.1% |
  Subspace diag:                    51.428     0.063   0.0% |
   calc_h_matrix:                   50.095     0.901   0.1% |
    Apply H:                        49.194    48.786   7.3% |--|
     HMM T:                          0.408     0.408   0.1% |
   diagonalize:                      0.199     0.199   0.0% |
   rotate_psi:                       1.071     1.071   0.2% |
  calc. matrices:                  101.656     5.208   0.8% |
   Apply H:                         96.448    95.558  14.3% |-----|
    HMM T:                           0.890     0.890   0.1% |
  diagonalize:                       1.019     1.019   0.2% |
  rotate_psi:                        2.076     2.076   0.3% |
 Density:                           21.454     0.000   0.0% |
  Atomic density matrices:           0.091     0.091   0.0% |
  Mix:                               0.546     0.546   0.1% |
  Multipole moments:                 0.002     0.002   0.0% |
  Pseudo density:                   20.815    20.780   3.1% ||
   Symmetrize density:               0.034     0.034   0.0% |
 Hamiltonian:                        2.671     0.025   0.0% |
  Atomic:                            1.563     0.009   0.0% |
   XC Correction:                    1.554     1.554   0.2% |
  Calculate atomic Hamiltonians:     0.256     0.256   0.0% |
  Communicate:                       0.000     0.000   0.0% |
  Poisson:                           0.008     0.008   0.0% |
  XC 3D grid:                        0.819     0.819   0.1% |
 Orthonormalize:                     0.306     0.004   0.0% |
  calc_s_matrix:                     0.047     0.047   0.0% |
  inverse-cholesky:                  0.005     0.005   0.0% |
  projections:                       0.212     0.212   0.0% |
  rotate_psi_s:                      0.037     0.037   0.0% |
Set symmetry:                        0.005     0.005   0.0% |
Other:                             407.587   407.587  60.9% |-----------------------|
-----------------------------------------------------------
Total:                                       669.455 100.0%

Date: Sat Aug  6 21:48:26 2022
