
  ___ ___ ___ _ _ _  
 |   |   |_  | | | | 
 | | | | | . | | | | 
 |__ |  _|___|_____|  22.1.0
 |___|_|             

User:   gabrielbirnbaum@Gabriels-MacBook-Pro.local
Date:   Sat Aug  6 21:37:16 2022
Arch:   x86_64
Pid:    6664
Python: 3.9.13
gpaw:   /Users/gabrielbirnbaum/PycharmProjects/nanolithia/venv/lib/python3.9/site-packages/gpaw
_gpaw:  /Users/gabrielbirnbaum/PycharmProjects/nanolithia/venv/lib/python3.9/site-packages/
        _gpaw.cpython-39-darwin.so
ase:    /Users/gabrielbirnbaum/PycharmProjects/nanolithia/venv/lib/python3.9/site-packages/ase (version 3.22.1)
numpy:  /Users/gabrielbirnbaum/PycharmProjects/nanolithia/venv/lib/python3.9/site-packages/numpy (version 1.23.0)
scipy:  /Users/gabrielbirnbaum/PycharmProjects/nanolithia/venv/lib/python3.9/site-packages/scipy (version 1.8.1)
libxc:  5.2.3
units:  Angstrom and eV
cores: 1
OpenMP: False
OMP_NUM_THREADS: 1

Input parameters:
  convergence: {density: 0.001,
                eigenstates: 0.0001,
                energy: 0.0002}
  kpts: {gamma: True,
         size: (6, 6, 6)}
  mode: {ecut: 900.0000000000001,
         name: pw}
  spinpol: False
  xc: PBE

System changes: positions, numbers, cell, pbc, initial_charges, initial_magmoms 

Initialize ...

Li-setup:
  name: Lithium
  id: 830b4218f175192f93f959cfc0aad614
  Z: 3.0
  valence: 1
  core: 2
  charge: 0.0
  file: /Users/gabrielbirnbaum/dft_learning/DIR/gpaw-setups-0.9.20000/Li.PBE.gz
  compensation charges: gauss, rc=0.33, lmax=2
  cutoffs: 1.91(filt), 2.55(core),
  valence states:
                energy  radius
    2s(1.00)    -2.874   1.058
    2p(0.00)    -1.090   1.058
    *s          24.337   1.058

  Using partial waves for Li as LCAO basis

O-setup:
  name: Oxygen
  id: 32ecd46bf208036f09c70b0ec9a88b78
  Z: 8.0
  valence: 6
  core: 2
  charge: 0.0
  file: /Users/gabrielbirnbaum/dft_learning/DIR/gpaw-setups-0.9.20000/O.PBE.gz
  compensation charges: gauss, rc=0.21, lmax=2
  cutoffs: 1.17(filt), 0.83(core),
  valence states:
                energy  radius
    2s(2.00)   -23.961   0.688
    2p(4.00)    -9.029   0.598
    *s           3.251   0.688
    *p          18.182   0.598
    *d           0.000   0.619

  Using partial waves for O as LCAO basis

Reference energy: -2446.427942

Spin-paired calculation

Convergence criteria:
 Maximum [total energy] change in last 3 cyles: 0.0002 eV / electron
 Maximum integral of absolute [dens]ity change: 0.001 electrons / valence electron
 Maximum integral of absolute [eigenst]ate change: 0.0001 eV^2 / valence electron
 Maximum number of scf [iter]ations: 333
 (Square brackets indicate name in SCF output, whereas a 'c' in
 the SCF output indicates the quantity has converged.)

Symmetries present (total): 48

  ( 1  0  0)  ( 1  0  0)  ( 1  0  0)  ( 1  0  0)  ( 1  0 -1)  ( 1  0 -1)
  ( 1  0 -1)  ( 1 -1  0)  ( 0  1  0)  ( 0  0  1)  ( 1  0  0)  ( 1 -1  0)
  ( 1 -1  0)  ( 1  0 -1)  ( 0  0  1)  ( 0  1  0)  ( 1 -1  0)  ( 1  0  0)

  ( 1  0 -1)  ( 1  0 -1)  ( 1 -1  0)  ( 1 -1  0)  ( 1 -1  0)  ( 1 -1  0)
  ( 0  1 -1)  ( 0  0 -1)  ( 1  0  0)  ( 1  0 -1)  ( 0 -1  1)  ( 0 -1  0)
  ( 0  0 -1)  ( 0  1 -1)  ( 1  0 -1)  ( 1  0  0)  ( 0 -1  0)  ( 0 -1  1)

  ( 0  1  0)  ( 0  1  0)  ( 0  1  0)  ( 0  1  0)  ( 0  1 -1)  ( 0  1 -1)
  ( 1  0  0)  ( 0  1 -1)  ( 0  0  1)  (-1  1  0)  ( 1  0 -1)  ( 0  1  0)
  ( 0  0  1)  (-1  1  0)  ( 1  0  0)  ( 0  1 -1)  ( 0  0 -1)  (-1  1  0)

  ( 0  1 -1)  ( 0  1 -1)  ( 0  0  1)  ( 0  0  1)  ( 0  0  1)  ( 0  0  1)
  ( 0  0 -1)  (-1  1  0)  ( 1  0  0)  ( 0  1  0)  ( 0 -1  1)  (-1  0  1)
  ( 1  0 -1)  ( 0  1  0)  ( 0  1  0)  ( 1  0  0)  (-1  0  1)  ( 0 -1  1)

  ( 0  0 -1)  ( 0  0 -1)  ( 0  0 -1)  ( 0  0 -1)  ( 0 -1  1)  ( 0 -1  1)
  ( 1  0 -1)  ( 0  1 -1)  ( 0 -1  0)  (-1  0  0)  ( 1 -1  0)  ( 0  0  1)
  ( 0  1 -1)  ( 1  0 -1)  (-1  0  0)  ( 0 -1  0)  ( 0 -1  0)  (-1  0  1)

  ( 0 -1  1)  ( 0 -1  1)  ( 0 -1  0)  ( 0 -1  0)  ( 0 -1  0)  ( 0 -1  0)
  ( 0 -1  0)  (-1  0  1)  ( 1 -1  0)  ( 0  0 -1)  ( 0 -1  1)  (-1  0  0)
  ( 1 -1  0)  ( 0  0  1)  ( 0 -1  1)  (-1  0  0)  ( 1 -1  0)  ( 0  0 -1)

  (-1  1  0)  (-1  1  0)  (-1  1  0)  (-1  1  0)  (-1  0  1)  (-1  0  1)
  ( 0  1  0)  ( 0  1 -1)  (-1  0  1)  (-1  0  0)  ( 0  0  1)  ( 0 -1  1)
  ( 0  1 -1)  ( 0  1  0)  (-1  0  0)  (-1  0  1)  ( 0 -1  1)  ( 0  0  1)

  (-1  0  1)  (-1  0  1)  (-1  0  0)  (-1  0  0)  (-1  0  0)  (-1  0  0)
  (-1  1  0)  (-1  0  0)  ( 0  0 -1)  ( 0 -1  0)  (-1  1  0)  (-1  0  1)
  (-1  0  0)  (-1  1  0)  ( 0 -1  0)  ( 0  0 -1)  (-1  0  1)  (-1  1  0)

216 k-points: 6 x 6 x 6 Monkhorst-Pack grid + [1/12,1/12,1/12]
16 k-points in the irreducible part of the Brillouin zone
       k-points in crystal coordinates                weights
   0:     0.00000000    0.00000000    0.00000000          1/216
   1:     0.16666667    0.16666667    0.00000000          6/216
   2:     0.16666667    0.16666667    0.16666667          8/216
   3:     0.33333333    0.16666667    0.16666667         12/216
   4:     0.33333333    0.33333333   -0.33333333         12/216
   5:     0.33333333    0.33333333    0.00000000          6/216
   6:     0.33333333    0.33333333    0.16666667         24/216
   7:     0.33333333    0.33333333    0.33333333          8/216
   8:     0.50000000    0.33333333   -0.33333333         24/216
   9:     0.50000000    0.33333333   -0.16666667         12/216
          ...
  15:     0.50000000    0.50000000    0.50000000          4/216

Wave functions: Plane wave expansion
  Cutoff energy: 900.000 eV
  Number of coefficients (min, max): 1471, 1572
  Pulay-stress correction: 0.000000 eV/Ang^3 (de/decut=0.000000)
  Using Numpy's FFT
  ScaLapack parameters: grid=1x1, blocksize=None
  Wavefunction extrapolation:
    Improved wavefunction reuse through dual PAW basis 

Occupation numbers: Fermi-Dirac: width=0.1000 eV
 

Eigensolver
   Davidson(niter=2) 

Densities:
  Coarse grid: 24*24*24 grid
  Fine grid: 48*48*48 grid
  Total Charge: 0.000000 

Density mixing:
  Method: separate
  Backend: pulay
  Linear mixing parameter: 0.05
  Mixing with 5 old densities
  Damping of long wave oscillations: 50 

Hamiltonian:
  XC and Coulomb potentials evaluated on a 48*48*48 grid
  Using the PBE Exchange-Correlation functional
  External potential:
    NoExternalPotential
 

XC parameters: PBE with 2 nearest neighbor stencil

Memory estimate:
  Process memory now: 109.18 MiB
  Calculator: 15.66 MiB
    Density: 5.85 MiB
      Arrays: 2.74 MiB
      Localized functions: 2.06 MiB
      Mixer: 1.05 MiB
    Hamiltonian: 1.84 MiB
      Arrays: 1.79 MiB
      XC: 0.00 MiB
      Poisson: 0.00 MiB
      vbar: 0.05 MiB
    Wavefunctions: 7.97 MiB
      Arrays psit_nG: 3.45 MiB
      Eigensolver: 0.35 MiB
      Projections: 0.05 MiB
      Projectors: 3.20 MiB
      PW-descriptor: 0.91 MiB

Total number of cores used: 1

Number of atoms: 3
Number of atomic orbitals: 12
Number of bands in calculation: 9
Number of valence electrons: 8
Bands to converge: occupied

... initialized

Initializing position-dependent things.

Density initialized from atomic densities
Creating initial wave functions:
  9 bands from LCAO basis set

                              
                              
                              
                     Li       
                              
                              
            Li                
                              
       O                      
                              
                              
                              

Positions:
   0 Li     4.941448    2.852946    2.017338    ( 0.0000,  0.0000,  0.0000)
   1 Li     1.647149    0.950982    0.672446    ( 0.0000,  0.0000,  0.0000)
   2 O      0.000000    0.000000    0.000000    ( 0.0000,  0.0000,  0.0000)

Unit cell:
           periodic     x           y           z      points  spacing
  1. axis:    yes    3.294299    0.000000    0.000000    24     0.1121
  2. axis:    yes    1.647149    2.852946    0.000000    24     0.1121
  3. axis:    yes    1.647149    0.950982    2.689784    24     0.1121

  Lengths:   3.294299   3.294299   3.294299
  Angles:   60.000000  60.000000  60.000000

Effective grid spacing dv^(1/3) = 0.1223

     iter     time        total  log10-change:
                         energy  eigst   dens
iter:   1 21:37:19   -15.253103
iter:   2 21:37:20   -15.027794  -1.94  -0.78
iter:   3 21:37:21   -14.508108  -1.60  -0.83
iter:   4 21:37:22   -14.466957  -1.81  -1.03
iter:   5 21:37:22   -14.435309  -2.07  -1.31
iter:   6 21:37:23   -14.437619  -4.07c -1.79
iter:   7 21:37:24   -14.442520  -3.28  -1.95
iter:   8 21:37:25   -14.439372  -3.32  -1.96
iter:   9 21:37:26   -14.439063  -3.96  -2.67
iter:  10 21:37:27   -14.439045c -6.35c -3.20c

Converged after 10 iterations.

Dipole moment: (0.000000, 0.000000, 0.000000) |e|*Ang

Energy contributions relative to reference atoms: (reference = -2446.427942)

Kinetic:        +16.100846
Potential:      -14.853164
External:        +0.000000
XC:             -15.929319
Entropy (-ST):   -0.000000
Local:           +0.242593
--------------------------
Free energy:    -14.439045
Extrapolated:   -14.439045

Showing only first 2 kpts
 Kpt  Band  Eigenvalues  Occupancy
  0     2      1.22224    2.00000
  0     3      1.22224    2.00000
  0     4      6.28523    0.00000
  0     5     13.02911    0.00000

  1     2      0.84790    2.00000
  1     3      0.84790    2.00000
  1     4      7.00181    0.00000
  1     5     13.27841    0.00000


Fermi level: 3.50385

Gap: 4.917 eV
Transition (v -> c):
  (s=0, k=0, n=3, [0.00, 0.00, 0.00]) -> (s=0, k=12, n=4, [0.50, 0.50, 0.00])
Writing to /Users/gabrielbirnbaum/PycharmProjects/nanolithia/calculators/Li2O-mp-1960-PBE-6x6x6-900.gpw (mode='')

Timing:                              incl.     excl.
-----------------------------------------------------------
Hamiltonian:                         0.080     0.001   0.0% |
 Atomic:                             0.045     0.000   0.0% |
  XC Correction:                     0.044     0.044   0.0% |
 Calculate atomic Hamiltonians:      0.004     0.004   0.0% |
 Communicate:                        0.000     0.000   0.0% |
 Initialize Hamiltonian:             0.000     0.000   0.0% |
 Poisson:                            0.000     0.000   0.0% |
 XC 3D grid:                         0.030     0.030   0.0% |
LCAO initialization:                 1.363     0.064   0.0% |
 LCAO eigensolver:                   0.664     0.000   0.0% |
  Calculate projections:             0.000     0.000   0.0% |
  DenseAtomicCorrection:             0.001     0.001   0.0% |
  Distribute overlap matrix:         0.000     0.000   0.0% |
  Orbital Layouts:                   0.002     0.002   0.0% |
  Potential matrix:                  0.657     0.657   0.1% |
  Sum over cells:                    0.004     0.004   0.0% |
 LCAO to grid:                       0.434     0.434   0.1% |
 Set positions (LCAO WFS):           0.202     0.032   0.0% |
  Basic WFS set positions:           0.003     0.003   0.0% |
  Basis functions set positions:     0.000     0.000   0.0% |
  P tci:                             0.044     0.044   0.0% |
  ST tci:                            0.096     0.096   0.0% |
  mktci:                             0.026     0.026   0.0% |
PWDescriptor:                        0.006     0.006   0.0% |
SCF-cycle:                           8.761     0.016   0.0% |
 Davidson:                           6.941     0.321   0.0% |
  Apply H:                           1.604     1.590   0.2% |
   HMM T:                            0.015     0.015   0.0% |
  Subspace diag:                     1.691     0.007   0.0% |
   calc_h_matrix:                    1.647     0.030   0.0% |
    Apply H:                         1.617     1.601   0.2% |
     HMM T:                          0.015     0.015   0.0% |
   diagonalize:                      0.016     0.016   0.0% |
   rotate_psi:                       0.021     0.021   0.0% |
  calc. matrices:                    3.253     0.199   0.0% |
   Apply H:                          3.053     3.026   0.5% |
    HMM T:                           0.028     0.028   0.0% |
  diagonalize:                       0.040     0.040   0.0% |
  rotate_psi:                        0.033     0.033   0.0% |
 Density:                            0.914     0.000   0.0% |
  Atomic density matrices:           0.013     0.013   0.0% |
  Mix:                               0.093     0.093   0.0% |
  Multipole moments:                 0.001     0.001   0.0% |
  Pseudo density:                    0.806     0.687   0.1% |
   Symmetrize density:               0.119     0.119   0.0% |
 Hamiltonian:                        0.880     0.010   0.0% |
  Atomic:                            0.526     0.005   0.0% |
   XC Correction:                    0.521     0.521   0.1% |
  Calculate atomic Hamiltonians:     0.035     0.035   0.0% |
  Communicate:                       0.000     0.000   0.0% |
  Poisson:                           0.002     0.002   0.0% |
  XC 3D grid:                        0.306     0.306   0.0% |
 Orthonormalize:                     0.010     0.001   0.0% |
  calc_s_matrix:                     0.003     0.003   0.0% |
  inverse-cholesky:                  0.001     0.001   0.0% |
  projections:                       0.005     0.005   0.0% |
  rotate_psi_s:                      0.001     0.001   0.0% |
Set symmetry:                        0.017     0.017   0.0% |
Other:                             659.228   659.228  98.5% |--------------------------------------|
-----------------------------------------------------------
Total:                                       669.456 100.0%

Date: Sat Aug  6 21:48:26 2022
