
  ___ ___ ___ _ _ _  
 |   |   |_  | | | | 
 | | | | | . | | | | 
 |__ |  _|___|_____|  22.1.0
 |___|_|             

User:   gabrielbirnbaum@Gabriels-MacBook-Pro.local
Date:   Fri Aug 12 20:17:59 2022
Arch:   x86_64
Pid:    30173
Python: 3.9.13
gpaw:   /Users/gabrielbirnbaum/PycharmProjects/nanolithia/venv/lib/python3.9/site-packages/gpaw
_gpaw:  /Users/gabrielbirnbaum/PycharmProjects/nanolithia/venv/lib/python3.9/site-packages/
        _gpaw.cpython-39-darwin.so
ase:    /Users/gabrielbirnbaum/PycharmProjects/nanolithia/venv/lib/python3.9/site-packages/ase (version 3.22.1)
numpy:  /Users/gabrielbirnbaum/PycharmProjects/nanolithia/venv/lib/python3.9/site-packages/numpy (version 1.23.0)
scipy:  /Users/gabrielbirnbaum/PycharmProjects/nanolithia/venv/lib/python3.9/site-packages/scipy (version 1.8.1)
libxc:  5.2.3
units:  Angstrom and eV
cores: 1
OpenMP: False
OMP_NUM_THREADS: 1

Input parameters:
  kpts: {gamma: True,
         size: (5, 5, 7)}
  mode: {ecut: 540.0,
         name: pw}
  xc: PBE

System changes: positions, numbers, cell, pbc, initial_charges, initial_magmoms 

Initialize ...

Li-setup:
  name: Lithium
  id: 830b4218f175192f93f959cfc0aad614
  Z: 3.0
  valence: 1
  core: 2
  charge: 0.0
  file: /Users/gabrielbirnbaum/PycharmProjects/nanolithia/venv/lib/python3.9/site-packages/ase/vibrations/setups/gpaw-setups-0.9.20000/Li.PBE.gz
  compensation charges: gauss, rc=0.33, lmax=2
  cutoffs: 1.91(filt), 2.55(core),
  valence states:
                energy  radius
    2s(1.00)    -2.874   1.058
    2p(0.00)    -1.090   1.058
    *s          24.337   1.058

  Using partial waves for Li as LCAO basis

O-setup:
  name: Oxygen
  id: 32ecd46bf208036f09c70b0ec9a88b78
  Z: 8.0
  valence: 6
  core: 2
  charge: 0.0
  file: /Users/gabrielbirnbaum/PycharmProjects/nanolithia/venv/lib/python3.9/site-packages/ase/vibrations/setups/gpaw-setups-0.9.20000/O.PBE.gz
  compensation charges: gauss, rc=0.21, lmax=2
  cutoffs: 1.17(filt), 0.83(core),
  valence states:
                energy  radius
    2s(2.00)   -23.961   0.688
    2p(4.00)    -9.029   0.598
    *s           3.251   0.688
    *p          18.182   0.598
    *d           0.000   0.619

  Using partial waves for O as LCAO basis

Reference energy: -8974.560486

Spin-polarized calculation.
Magnetic moment: 4.800000

Convergence criteria:
 Maximum [total energy] change in last 3 cyles: 0.0005 eV / electron
 Maximum integral of absolute [dens]ity change: 0.0001 electrons / valence electron
 Maximum integral of absolute [eigenst]ate change: 4e-08 eV^2 / valence electron
 Maximum number of scf [iter]ations: 333
 (Square brackets indicate name in SCF output, whereas a 'c' in
 the SCF output indicates the quantity has converged.)

Symmetries present (total): 4

  ( 1  0  0)  ( 0  1  0)  ( 0 -1  0)  (-1  0  0)
  ( 0  1  0)  ( 1  0  0)  (-1  0  0)  ( 0 -1  0)
  ( 0  0  1)  ( 0  0 -1)  ( 0  0  1)  ( 0  0 -1)

175 k-points: 5 x 5 x 7 Monkhorst-Pack grid
54 k-points in the irreducible part of the Brillouin zone
       k-points in crystal coordinates                weights
   0:     0.00000000    0.00000000    0.00000000          1/175
   1:     0.00000000    0.00000000    0.14285714          2/175
   2:     0.00000000    0.00000000    0.28571429          2/175
   3:     0.00000000    0.00000000    0.42857143          2/175
   4:     0.20000000   -0.20000000   -0.42857143          2/175
   5:     0.20000000   -0.20000000   -0.28571429          2/175
   6:     0.20000000   -0.20000000   -0.14285714          2/175
   7:     0.20000000   -0.20000000    0.00000000          2/175
   8:     0.20000000   -0.20000000    0.14285714          2/175
   9:     0.20000000   -0.20000000    0.28571429          2/175
          ...
  53:     0.40000000    0.40000000    0.42857143          4/175

Wave functions: Plane wave expansion
  Cutoff energy: 540.000 eV
  Number of coefficients (min, max): 1889, 1943
  Pulay-stress correction: 0.000000 eV/Ang^3 (de/decut=0.000000)
  Using Numpy's FFT
  ScaLapack parameters: grid=1x1, blocksize=None
  Wavefunction extrapolation:
    Improved wavefunction reuse through dual PAW basis 

Occupation numbers: Fermi-Dirac: width=0.1000 eV
 

Eigensolver
   Davidson(niter=2) 

Densities:
  Coarse grid: 18*18*42 grid
  Fine grid: 36*36*84 grid
  Total Charge: 0.000000 

Density mixing:
  Method: difference
  Backend: pulay
  Linear mixing parameter: 0.05
  Mixing with 5 old densities
  Damping of long wave oscillations: 50 

Hamiltonian:
  XC and Coulomb potentials evaluated on a 36*36*84 grid
  Using the PBE Exchange-Correlation functional
  External potential:
    NoExternalPotential
 

XC parameters: PBE with 2 nearest neighbor stencil

Memory estimate:
  Process memory now: 202.60 MiB
  Calculator: 106.62 MiB
    Density: 7.64 MiB
      Arrays: 3.63 MiB
      Localized functions: 2.55 MiB
      Mixer: 1.45 MiB
    Hamiltonian: 2.76 MiB
      Arrays: 2.70 MiB
      XC: 0.00 MiB
      Poisson: 0.00 MiB
      vbar: 0.06 MiB
    Wavefunctions: 96.22 MiB
      Arrays psit_nG: 76.85 MiB
      Eigensolver: 0.95 MiB
      Projections: 2.85 MiB
      Projectors: 13.46 MiB
      PW-descriptor: 2.12 MiB

Total number of cores used: 1

Number of atoms: 8
Number of atomic orbitals: 32
Number of bands in calculation: 24
Number of valence electrons: 28
Bands to converge: occupied

... initialized

Initializing position-dependent things.

Density initialized from atomic densities
Creating initial wave functions:
  24 bands from LCAO basis set

                      
                      
                      
                      
             O        
                      
           LiO        
                      
        Li            
                      
           O Li       
                      
           O          
        Li            
                      
                      
                      
                      

Positions:
   0 Li     0.000000    0.000000    3.851761    ( 0.0000,  0.0000,  0.6000)
   1 Li     0.000000    0.000000    0.000000    ( 0.0000,  0.0000,  0.6000)
   2 Li     1.590181   -0.918093    5.777642    ( 0.0000,  0.0000,  0.6000)
   3 Li     1.590181    0.918093    1.925881    ( 0.0000,  0.0000,  0.6000)
   4 O      1.590181   -0.918093    1.150213    ( 0.0000,  0.0000,  0.6000)
   5 O      1.590181    0.918093    5.001974    ( 0.0000,  0.0000,  0.6000)
   6 O      1.590181    0.918093    6.553309    ( 0.0000,  0.0000,  0.6000)
   7 O      1.590181   -0.918093    2.701548    ( 0.0000,  0.0000,  0.6000)

Unit cell:
           periodic     x           y           z      points  spacing
  1. axis:    yes    1.590181   -2.754274    0.000000    18     0.1530
  2. axis:    yes    1.590181    2.754274    0.000000    18     0.1530
  3. axis:    yes    0.000000    0.000000    7.703522    42     0.1834

  Lengths:   3.180362   3.180362   7.703522
  Angles:   90.000000  90.000000 119.999995

Effective grid spacing dv^(1/3) = 0.1705

     iter     time        total  log10-change:  magmom
                         energy  eigst   dens
iter:   1 20:21:03   -38.762497                  +4.6307
iter:   2 20:21:18   -39.652566  -1.74  -0.89    +1.3892
iter:   3 20:21:34   -38.797128  -1.54  -0.92    -0.0092
iter:   4 20:21:49   -39.181301  -1.43  -1.24    -0.0046
iter:   5 20:22:05   -38.672172  -1.73  -1.30    -0.0004
iter:   6 20:22:20   -38.672990  -3.43  -2.10    -0.0001
iter:   7 20:22:36   -38.692652  -2.88  -2.12    -0.0000
iter:   8 20:22:52   -38.671138  -3.10  -1.91    +0.0000
iter:   9 20:23:08   -38.670651  -4.54  -2.44    +0.0000
iter:  10 20:23:24   -38.671303c -5.30  -2.53    -0.0000
iter:  11 20:23:40   -38.670593c -3.93  -2.55    -0.0000
iter:  12 20:24:06   -38.670489c -5.67  -3.17    -0.0000
iter:  13 20:24:23   -38.670484c -6.57  -3.68    -0.0000
iter:  14 20:24:40   -38.670493c -6.50  -3.77    -0.0000
iter:  15 20:24:58   -38.670487c -6.78  -3.79    -0.0000
iter:  16 20:25:14   -38.670488c -6.76  -4.05c   -0.0000
iter:  17 20:25:32   -38.670487c -7.05  -3.95    -0.0000
iter:  18 20:25:49   -38.670488c -8.25c -4.37c   -0.0000

Converged after 18 iterations.

Dipole moment: (0.000000, -0.000000, -0.000000) |e|*Ang

Total magnetic moment: (0.000000, 0.000000, -0.000000)
Local magnetic moments:
   0 Li ( 0.000000,  0.000000, -0.000000)
   1 Li ( 0.000000,  0.000000, -0.000000)
   2 Li ( 0.000000,  0.000000,  0.000000)
   3 Li ( 0.000000,  0.000000,  0.000000)
   4 O  ( 0.000000,  0.000000, -0.000000)
   5 O  ( 0.000000,  0.000000, -0.000000)
   6 O  ( 0.000000,  0.000000, -0.000000)
   7 O  ( 0.000000,  0.000000, -0.000000)

Energy contributions relative to reference atoms: (reference = -8974.560486)

Kinetic:        +36.674930
Potential:      -34.125532
External:        +0.000000
XC:             -41.635614
Entropy (-ST):   -0.000009
Local:           +0.415733
--------------------------
Free energy:    -38.670492
Extrapolated:   -38.670488

Spin contamination: 0.000000 electrons
Showing only first 2 kpts
                      Up                     Down
 Kpt  Band  Eigenvalues  Occupancy  Eigenvalues  Occupancy
  0    12      2.65868    0.99999      2.65868    0.99999
  0    13      2.65881    0.99999      2.65881    0.99999
  0    14      4.71089    0.00015      4.71089    0.00015
  0    15      6.95268    0.00000      6.95268    0.00000

  1    12      2.64206    0.99999      2.64206    0.99999
  1    13      2.64219    0.99999      2.64219    0.99999
  1    14      4.82485    0.00005      4.82485    0.00005
  1    15      6.83128    0.00000      6.83128    0.00000


Fermi level: 3.82717

Gap: 2.052 eV
Transition (v -> c):
  (s=0, k=0, n=13, [0.00, 0.00, 0.00]) -> (s=1, k=0, n=14, [0.00, 0.00, 0.00])
Writing to /Users/gabrielbirnbaum/PycharmProjects/nanolithia/calculators/Li2O2-mp-841-PBE-540-{'size': (5, 5, 7), 'gamma': True}.gpw (mode='')

Timing:                              incl.     excl.
-----------------------------------------------------------
Hamiltonian:                         0.348     0.001   0.0% |
 Atomic:                             0.269     0.001   0.0% |
  XC Correction:                     0.269     0.269   0.0% |
 Calculate atomic Hamiltonians:      0.017     0.017   0.0% |
 Communicate:                        0.000     0.000   0.0% |
 Initialize Hamiltonian:             0.000     0.000   0.0% |
 Poisson:                            0.001     0.001   0.0% |
 XC 3D grid:                         0.060     0.060   0.0% |
LCAO initialization:                89.607     0.082   0.0% |
 LCAO eigensolver:                  76.677     0.005   0.0% |
  Calculate projections:             0.009     0.009   0.0% |
  DenseAtomicCorrection:             0.020     0.020   0.0% |
  Distribute overlap matrix:         0.003     0.003   0.0% |
  Orbital Layouts:                   0.052     0.052   0.0% |
  Potential matrix:                 76.464    76.464   5.4% |-|
  Sum over cells:                    0.125     0.125   0.0% |
 LCAO to grid:                      11.471    11.471   0.8% |
 Set positions (LCAO WFS):           1.377     0.161   0.0% |
  Basic WFS set positions:           0.005     0.005   0.0% |
  Basis functions set positions:     0.000     0.000   0.0% |
  P tci:                             0.423     0.423   0.0% |
  ST tci:                            0.681     0.681   0.0% |
  mktci:                             0.107     0.107   0.0% |
PWDescriptor:                        0.020     0.020   0.0% |
SCF-cycle:                         300.403     0.357   0.0% |
 Davidson:                         267.787    16.912   1.2% |
  Apply H:                          66.839    66.289   4.7% |-|
   HMM T:                            0.549     0.549   0.0% |
  Subspace diag:                    60.326     0.119   0.0% |
   calc_h_matrix:                   58.638     1.044   0.1% |
    Apply H:                        57.593    57.014   4.0% |-|
     HMM T:                          0.579     0.579   0.0% |
   diagonalize:                      0.439     0.439   0.0% |
   rotate_psi:                       1.130     1.130   0.1% |
  calc. matrices:                  118.990     7.140   0.5% |
   Apply H:                        111.850   110.762   7.9% |--|
    HMM T:                           1.088     1.088   0.1% |
  diagonalize:                       2.633     2.633   0.2% |
  rotate_psi:                        2.087     2.087   0.1% |
 Density:                           26.555     0.000   0.0% |
  Atomic density matrices:           0.211     0.211   0.0% |
  Mix:                               0.508     0.508   0.0% |
  Multipole moments:                 0.003     0.003   0.0% |
  Pseudo density:                   25.833    25.790   1.8% ||
   Symmetrize density:               0.043     0.043   0.0% |
 Hamiltonian:                        5.436     0.024   0.0% |
  Atomic:                            4.019     0.015   0.0% |
   XC Correction:                    4.004     4.004   0.3% |
  Calculate atomic Hamiltonians:     0.216     0.216   0.0% |
  Communicate:                       0.000     0.000   0.0% |
  Poisson:                           0.006     0.006   0.0% |
  XC 3D grid:                        1.171     1.171   0.1% |
 Orthonormalize:                     0.268     0.007   0.0% |
  calc_s_matrix:                     0.042     0.042   0.0% |
  inverse-cholesky:                  0.009     0.009   0.0% |
  projections:                       0.177     0.177   0.0% |
  rotate_psi_s:                      0.033     0.033   0.0% |
Set symmetry:                        0.004     0.004   0.0% |
Other:                            1017.760  1017.760  72.3% |----------------------------|
-----------------------------------------------------------
Total:                                      1408.142 100.0%

Memory usage: 758.00 MiB
Date: Fri Aug 12 20:41:27 2022
