
  ___ ___ ___ _ _ _  
 |   |   |_  | | | | 
 | | | | | . | | | | 
 |__ |  _|___|_____|  22.1.0
 |___|_|             

User:   gabrielbirnbaum@Gabriels-MacBook-Pro.local
Date:   Wed Aug  3 08:47:27 2022
Arch:   x86_64
Pid:    51718
Python: 3.9.13
gpaw:   /Users/gabrielbirnbaum/PycharmProjects/nanolithia/venv/lib/python3.9/site-packages/gpaw
_gpaw:  /Users/gabrielbirnbaum/PycharmProjects/nanolithia/venv/lib/python3.9/site-packages/
        _gpaw.cpython-39-darwin.so
ase:    /Users/gabrielbirnbaum/PycharmProjects/nanolithia/venv/lib/python3.9/site-packages/ase (version 3.22.1)
numpy:  /Users/gabrielbirnbaum/PycharmProjects/nanolithia/venv/lib/python3.9/site-packages/numpy (version 1.23.0)
scipy:  /Users/gabrielbirnbaum/PycharmProjects/nanolithia/venv/lib/python3.9/site-packages/scipy (version 1.8.1)
libxc:  5.2.3
units:  Angstrom and eV
cores: 1
OpenMP: False
OMP_NUM_THREADS: 1

Input parameters:
  convergence: {density: 0.001,
                eigenstates: 0.0001,
                energy: 0.0002}
  kpts: {gamma: True,
         size: (6, 6, 6)}
  mode: {ecut: 899.0,
         name: pw}
  spinpol: False
  xc: PBE

Input parameters:
  setups: {O: :p,0.70,0}

System changes: positions, numbers, cell, pbc, initial_charges, initial_magmoms 

Initialize ...

Li-setup:
  name: Lithium
  id: 830b4218f175192f93f959cfc0aad614
  Z: 3.0
  valence: 1
  core: 2
  charge: 0.0
  file: /Users/gabrielbirnbaum/dft_learning/DIR/gpaw-setups-0.9.20000/Li.PBE.gz
  compensation charges: gauss, rc=0.33, lmax=2
  cutoffs: 1.91(filt), 2.55(core),
  valence states:
                energy  radius
    2s(1.00)    -2.874   1.058
    2p(0.00)    -1.090   1.058
    *s          24.337   1.058

  Using partial waves for Li as LCAO basis

O-setup:
  name: Oxygen
  id: 32ecd46bf208036f09c70b0ec9a88b78
  Z: 8.0
  valence: 6
  core: 2
  charge: 0.0
  Hubbard U: 0.700000 eV (l=1, scale=False)
  file: /Users/gabrielbirnbaum/dft_learning/DIR/gpaw-setups-0.9.20000/O.PBE.gz
  compensation charges: gauss, rc=0.21, lmax=2
  cutoffs: 1.17(filt), 0.83(core),
  valence states:
                energy  radius
    2s(2.00)   -23.961   0.688
    2p(4.00)    -9.029   0.598
    *s           3.251   0.688
    *p          18.182   0.598
    *d           0.000   0.619

  Using partial waves for O as LCAO basis

Reference energy: -8974.560486

Spin-paired calculation

Convergence criteria:
 Maximum [total energy] change in last 3 cyles: 0.0002 eV / electron
 Maximum integral of absolute [dens]ity change: 0.001 electrons / valence electron
 Maximum integral of absolute [eigenst]ate change: 0.0001 eV^2 / valence electron
 Maximum number of scf [iter]ations: 333
 (Square brackets indicate name in SCF output, whereas a 'c' in
 the SCF output indicates the quantity has converged.)

Symmetries present (total): 4

  ( 1  0  0)  ( 0  1  0)  ( 0 -1  0)  (-1  0  0)
  ( 0  1  0)  ( 1  0  0)  (-1  0  0)  ( 0 -1  0)
  ( 0  0  1)  ( 0  0 -1)  ( 0  0  1)  ( 0  0 -1)

216 k-points: 6 x 6 x 6 Monkhorst-Pack grid + [1/12,1/12,1/12]
68 k-points in the irreducible part of the Brillouin zone
       k-points in crystal coordinates                weights
   0:     0.00000000    0.00000000    0.00000000          1/216
   1:     0.00000000    0.00000000    0.16666667          2/216
   2:     0.00000000    0.00000000    0.33333333          2/216
   3:     0.00000000    0.00000000    0.50000000          1/216
   4:     0.16666667   -0.16666667   -0.33333333          2/216
   5:     0.16666667   -0.16666667   -0.16666667          2/216
   6:     0.16666667   -0.16666667    0.00000000          2/216
   7:     0.16666667   -0.16666667    0.16666667          2/216
   8:     0.16666667   -0.16666667    0.33333333          2/216
   9:     0.16666667   -0.16666667    0.50000000          2/216
          ...
  67:     0.50000000    0.50000000    0.50000000          1/216

Wave functions: Plane wave expansion
  Cutoff energy: 899.000 eV
  Number of coefficients (min, max): 4108, 4164
  Pulay-stress correction: 0.000000 eV/Ang^3 (de/decut=0.000000)
  Using Numpy's FFT
  ScaLapack parameters: grid=1x1, blocksize=None
  Wavefunction extrapolation:
    Improved wavefunction reuse through dual PAW basis 

Occupation numbers: Fermi-Dirac: width=0.1000 eV
 

Eigensolver
   Davidson(niter=2) 

Densities:
  Coarse grid: 24*24*54 grid
  Fine grid: 48*48*108 grid
  Total Charge: 0.000000 

Density mixing:
  Method: separate
  Backend: pulay
  Linear mixing parameter: 0.05
  Mixing with 5 old densities
  Damping of long wave oscillations: 50 

Hamiltonian:
  XC and Coulomb potentials evaluated on a 48*48*108 grid
  Using the PBE Exchange-Correlation functional
  External potential:
    NoExternalPotential
 

XC parameters: PBE with 2 nearest neighbor stencil

Memory estimate:
  Process memory now: 132.27 MiB
  Calculator: 154.14 MiB
    Density: 14.01 MiB
      Arrays: 6.17 MiB
      Localized functions: 5.47 MiB
      Mixer: 2.37 MiB
    Hamiltonian: 4.17 MiB
      Arrays: 4.03 MiB
      XC: 0.00 MiB
      Poisson: 0.00 MiB
      vbar: 0.13 MiB
    Wavefunctions: 135.96 MiB
      Arrays psit_nG: 90.73 MiB
      Eigensolver: 1.72 MiB
      Projections: 1.57 MiB
      Projectors: 36.44 MiB
      PW-descriptor: 5.51 MiB

Total number of cores used: 1

Number of atoms: 8
Number of atomic orbitals: 32
Number of bands in calculation: 21
Number of valence electrons: 28
Bands to converge: occupied

... initialized

Initializing position-dependent things.

Density initialized from atomic densities
Creating initial wave functions:
  21 bands from LCAO basis set

                      
                      
                      
                      
             O        
                      
           LiO        
                      
        Li            
                      
           O Li       
                      
           O          
        Li            
                      
                      
                      
                      

Positions:
   0 Li     0.000000    0.000000    3.851761    ( 0.0000,  0.0000,  0.0000)
   1 Li     0.000000    0.000000    0.000000    ( 0.0000,  0.0000,  0.0000)
   2 Li     1.590181   -0.918093    5.777642    ( 0.0000,  0.0000,  0.0000)
   3 Li     1.590181    0.918093    1.925881    ( 0.0000,  0.0000,  0.0000)
   4 O      1.590181   -0.918093    1.150213    ( 0.0000,  0.0000,  0.0000)
   5 O      1.590181    0.918093    5.001974    ( 0.0000,  0.0000,  0.0000)
   6 O      1.590181    0.918093    6.553309    ( 0.0000,  0.0000,  0.0000)
   7 O      1.590181   -0.918093    2.701548    ( 0.0000,  0.0000,  0.0000)

Unit cell:
           periodic     x           y           z      points  spacing
  1. axis:    yes    1.590181   -2.754274    0.000000    24     0.1148
  2. axis:    yes    1.590181    2.754274    0.000000    24     0.1148
  3. axis:    yes    0.000000    0.000000    7.703522    54     0.1427

  Lengths:   3.180362   3.180362   7.703522
  Angles:   90.000000  90.000000 119.999995

Effective grid spacing dv^(1/3) = 0.1295

     iter     time        total  log10-change:
                         energy  eigst   dens
iter:   1 08:48:02   -38.895217
iter:   2 08:48:19   -38.690948  -1.55  -0.89
iter:   3 08:48:37   -37.764276  -1.25  -0.93
iter:   4 08:48:55   -38.229465  -1.20  -1.26
iter:   5 08:49:13   -37.680783  -1.29  -1.29
iter:   6 08:49:31   -37.681970  -3.09  -2.12
iter:   7 08:49:49   -37.720780  -2.27  -2.13
iter:   8 08:50:06   -37.689271  -2.04  -1.85
iter:   9 08:50:25   -37.684054  -4.27c -2.15
iter:  10 08:50:44   -37.683563  -5.63c -2.27
iter:  11 08:51:02   -37.679444c -2.98  -2.29
iter:  12 08:51:20   -37.679264c -5.16c -3.07c

Converged after 12 iterations.

Dipole moment: (0.000000, -0.000000, -0.000000) |e|*Ang

Energy contributions relative to reference atoms: (reference = -8974.560486)

Kinetic:        +42.592171
Potential:      -41.302377
External:        +0.000000
XC:             -39.921156
Entropy (-ST):   -0.000006
Local:           +0.952102
--------------------------
Free energy:    -37.679267
Extrapolated:   -37.679264

Showing only first 2 kpts
 Kpt  Band  Eigenvalues  Occupancy
  0    12      2.63772    1.99999
  0    13      2.63772    1.99999
  0    14      4.76398    0.00021
  0    15      7.02975    0.00000

  1    12      2.62217    1.99999
  1    13      2.62218    1.99999
  1    14      4.92693    0.00004
  1    15      6.86388    0.00000


Fermi level: 3.84716

Gap: 2.120 eV
Transition (v -> c):
  (s=0, k=6, n=13, [0.17, -0.17, 0.00]) -> (s=0, k=0, n=14, [0.00, 0.00, 0.00])
Writing to /Users/gabrielbirnbaum/PycharmProjects/nanolithia/calculators/Li2O2-mp-841-PBE-6x6x6-899.gpw (mode='')

Timing:                              incl.     excl.
-----------------------------------------------------------
Hamiltonian:                         0.214     0.003   0.0% |
 Atomic:                             0.124     0.002   0.0% |
  XC Correction:                     0.122     0.122   0.1% |
 Calculate atomic Hamiltonians:      0.020     0.020   0.0% |
 Communicate:                        0.000     0.000   0.0% |
 Initialize Hamiltonian:             0.000     0.000   0.0% |
 Poisson:                            0.001     0.001   0.0% |
 XC 3D grid:                         0.066     0.066   0.0% |
LCAO initialization:                16.989     0.033   0.0% |
 LCAO eigensolver:                   1.708     0.002   0.0% |
  Calculate projections:             0.005     0.005   0.0% |
  DenseAtomicCorrection:             0.014     0.014   0.0% |
  Distribute overlap matrix:         0.001     0.001   0.0% |
  Orbital Layouts:                   0.029     0.029   0.0% |
  Potential matrix:                  1.594     1.594   0.7% |
  Sum over cells:                    0.064     0.064   0.0% |
 LCAO to grid:                      13.693    13.693   5.9% |-|
 Set positions (LCAO WFS):           1.554     0.244   0.1% |
  Basic WFS set positions:           0.001     0.001   0.0% |
  Basis functions set positions:     0.000     0.000   0.0% |
  P tci:                             0.589     0.589   0.3% |
  ST tci:                            0.682     0.682   0.3% |
  mktci:                             0.039     0.039   0.0% |
PWDescriptor:                        0.049     0.049   0.0% |
SCF-cycle:                         214.465     0.197   0.1% |
 Davidson:                         191.803    13.499   5.8% |-|
  Apply H:                          42.508    41.998  18.0% |------|
   HMM T:                            0.510     0.510   0.2% |
  Subspace diag:                    44.911     0.054   0.0% |
   calc_h_matrix:                   43.764     0.802   0.3% |
    Apply H:                        42.961    42.621  18.2% |------|
     HMM T:                          0.341     0.341   0.1% |
   diagonalize:                      0.180     0.180   0.1% |
   rotate_psi:                       0.913     0.913   0.4% |
  calc. matrices:                   88.254     4.640   2.0% ||
   Apply H:                         83.615    82.844  35.5% |-------------|
    HMM T:                           0.770     0.770   0.3% |
  diagonalize:                       0.880     0.880   0.4% |
  rotate_psi:                        1.751     1.751   0.7% |
 Density:                           19.743     0.000   0.0% |
  Atomic density matrices:           0.085     0.085   0.0% |
  Mix:                               0.520     0.520   0.2% |
  Multipole moments:                 0.002     0.002   0.0% |
  Pseudo density:                   19.137    19.105   8.2% |--|
   Symmetrize density:               0.032     0.032   0.0% |
 Hamiltonian:                        2.421     0.024   0.0% |
  Atomic:                            1.417     0.022   0.0% |
   XC Correction:                    1.395     1.395   0.6% |
  Calculate atomic Hamiltonians:     0.226     0.226   0.1% |
  Communicate:                       0.000     0.000   0.0% |
  Poisson:                           0.007     0.007   0.0% |
  XC 3D grid:                        0.747     0.747   0.3% |
 Orthonormalize:                     0.301     0.004   0.0% |
  calc_s_matrix:                     0.045     0.045   0.0% |
  inverse-cholesky:                  0.005     0.005   0.0% |
  projections:                       0.210     0.210   0.1% |
  rotate_psi_s:                      0.036     0.036   0.0% |
Set symmetry:                        0.004     0.004   0.0% |
Other:                               1.882     1.882   0.8% |
-----------------------------------------------------------
Total:                                       233.603 100.0%

Date: Wed Aug  3 08:51:21 2022
