
  ___ ___ ___ _ _ _  
 |   |   |_  | | | | 
 | | | | | . | | | | 
 |__ |  _|___|_____|  22.1.0
 |___|_|             

User:   gabrielbirnbaum@Gabriels-MacBook-Pro.local
Date:   Mon Jul 18 22:33:05 2022
Arch:   x86_64
Pid:    65545
Python: 3.9.13
gpaw:   /Users/gabrielbirnbaum/PycharmProjects/nanolithia/venv/lib/python3.9/site-packages/gpaw
_gpaw:  /Users/gabrielbirnbaum/PycharmProjects/nanolithia/venv/lib/python3.9/site-packages/
        _gpaw.cpython-39-darwin.so
ase:    /Users/gabrielbirnbaum/PycharmProjects/nanolithia/venv/lib/python3.9/site-packages/ase (version 3.22.1)
numpy:  /Users/gabrielbirnbaum/PycharmProjects/nanolithia/venv/lib/python3.9/site-packages/numpy (version 1.23.0)
scipy:  /Users/gabrielbirnbaum/PycharmProjects/nanolithia/venv/lib/python3.9/site-packages/scipy (version 1.8.1)
libxc:  5.2.3
units:  Angstrom and eV
cores: 1
OpenMP: False
OMP_NUM_THREADS: 1

Input parameters:
  kpts: {size: (8, 8, 8)}
  mode: {ecut: 700.0,
         name: pw}
  setups: {O: :p,0.76}
  xc: PBE

System changes: positions, numbers, cell, pbc, initial_charges, initial_magmoms 

Initialize ...

Li-setup:
  name: Lithium
  id: 830b4218f175192f93f959cfc0aad614
  Z: 3.0
  valence: 1
  core: 2
  charge: 0.0
  file: /Users/gabrielbirnbaum/dft_learning/DIR/gpaw-setups-0.9.20000/Li.PBE.gz
  compensation charges: gauss, rc=0.33, lmax=2
  cutoffs: 1.91(filt), 2.55(core),
  valence states:
                energy  radius
    2s(1.00)    -2.874   1.058
    2p(0.00)    -1.090   1.058
    *s          24.337   1.058

  Using partial waves for Li as LCAO basis

O-setup:
  name: Oxygen
  id: 32ecd46bf208036f09c70b0ec9a88b78
  Z: 8.0
  valence: 6
  core: 2
  charge: 0.0
  Hubbard U: 0.760000 eV (l=1, scale=True)
  file: /Users/gabrielbirnbaum/dft_learning/DIR/gpaw-setups-0.9.20000/O.PBE.gz
  compensation charges: gauss, rc=0.21, lmax=2
  cutoffs: 1.17(filt), 0.83(core),
  valence states:
                energy  radius
    2s(2.00)   -23.961   0.688
    2p(4.00)    -9.029   0.598
    *s           3.251   0.688
    *p          18.182   0.598
    *d           0.000   0.619

  Using partial waves for O as LCAO basis

Reference energy: -8974.560486

Spin-paired calculation

Convergence criteria:
 Maximum [total energy] change in last 3 cyles: 0.0005 eV / electron
 Maximum integral of absolute [dens]ity change: 0.0001 electrons / valence electron
 Maximum integral of absolute [eigenst]ate change: 4e-08 eV^2 / valence electron
 Maximum number of scf [iter]ations: 333
 (Square brackets indicate name in SCF output, whereas a 'c' in
 the SCF output indicates the quantity has converged.)

Symmetries present (total): 4

  ( 1  0  0)  ( 0  1  0)  ( 0 -1  0)  (-1  0  0)
  ( 0  1  0)  ( 1  0  0)  (-1  0  0)  ( 0 -1  0)
  ( 0  0  1)  ( 0  0 -1)  ( 0  0  1)  ( 0  0 -1)

512 k-points: 8 x 8 x 8 Monkhorst-Pack grid
144 k-points in the irreducible part of the Brillouin zone
       k-points in crystal coordinates                weights
   0:     0.06250000   -0.06250000   -0.43750000          2/512
   1:     0.06250000   -0.06250000   -0.31250000          2/512
   2:     0.06250000   -0.06250000   -0.18750000          2/512
   3:     0.06250000   -0.06250000   -0.06250000          2/512
   4:     0.06250000   -0.06250000    0.06250000          2/512
   5:     0.06250000   -0.06250000    0.18750000          2/512
   6:     0.06250000   -0.06250000    0.31250000          2/512
   7:     0.06250000   -0.06250000    0.43750000          2/512
   8:     0.06250000    0.06250000    0.06250000          4/512
   9:     0.06250000    0.06250000    0.18750000          4/512
          ...
 143:     0.43750000    0.43750000    0.43750000          4/512

Wave functions: Plane wave expansion
  Cutoff energy: 700.000 eV
  Number of coefficients (min, max): 2806, 2857
  Pulay-stress correction: 0.000000 eV/Ang^3 (de/decut=0.000000)
  Using Numpy's FFT
  ScaLapack parameters: grid=1x1, blocksize=None
  Wavefunction extrapolation:
    Improved wavefunction reuse through dual PAW basis 

Occupation numbers: Fermi-Dirac: width=0.1000 eV
 

Eigensolver
   Davidson(niter=2) 

Densities:
  Coarse grid: 20*20*48 grid
  Fine grid: 40*40*96 grid
  Total Charge: 0.000000 

Density mixing:
  Method: separate
  Backend: pulay
  Linear mixing parameter: 0.05
  Mixing with 5 old densities
  Damping of long wave oscillations: 50 

Hamiltonian:
  XC and Coulomb potentials evaluated on a 40*40*96 grid
  Using the PBE Exchange-Correlation functional
  External potential:
    NoExternalPotential
 

XC parameters: PBE with 2 nearest neighbor stencil

Memory estimate:
  Process memory now: 1034.24 MiB
  Calculator: 207.98 MiB
    Density: 9.04 MiB
      Arrays: 3.81 MiB
      Localized functions: 3.77 MiB
      Mixer: 1.46 MiB
    Hamiltonian: 2.58 MiB
      Arrays: 2.49 MiB
      XC: 0.00 MiB
      Poisson: 0.00 MiB
      vbar: 0.09 MiB
    Wavefunctions: 196.36 MiB
      Arrays psit_nG: 131.83 MiB
      Eigensolver: 1.20 MiB
      Projections: 3.32 MiB
      Projectors: 53.00 MiB
      PW-descriptor: 7.01 MiB

Total number of cores used: 1

Number of atoms: 8
Number of atomic orbitals: 32
Number of bands in calculation: 21
Number of valence electrons: 28
Bands to converge: occupied

... initialized

Initializing position-dependent things.

Density initialized from atomic densities
Creating initial wave functions:
  21 bands from LCAO basis set

                      
                      
                      
                      
             O        
                      
           LiO        
                      
        Li            
                      
           O Li       
                      
           O          
        Li            
                      
                      
                      
                      

Positions:
   0 Li     0.000000    0.000000    3.851761    ( 0.0000,  0.0000,  0.0000)
   1 Li     0.000000    0.000000    0.000000    ( 0.0000,  0.0000,  0.0000)
   2 Li     1.590181   -0.918093    5.777642    ( 0.0000,  0.0000,  0.0000)
   3 Li     1.590181    0.918093    1.925881    ( 0.0000,  0.0000,  0.0000)
   4 O      1.590181   -0.918093    1.150213    ( 0.0000,  0.0000,  0.0000)
   5 O      1.590181    0.918093    5.001974    ( 0.0000,  0.0000,  0.0000)
   6 O      1.590181    0.918093    6.553309    ( 0.0000,  0.0000,  0.0000)
   7 O      1.590181   -0.918093    2.701548    ( 0.0000,  0.0000,  0.0000)

Unit cell:
           periodic     x           y           z      points  spacing
  1. axis:    yes    1.590181   -2.754274    0.000000    20     0.1377
  2. axis:    yes    1.590181    2.754274    0.000000    20     0.1377
  3. axis:    yes    0.000000    0.000000    7.703522    48     0.1605

  Lengths:   3.180362   3.180362   7.703522
  Angles:   90.000000  90.000000 119.999995

Effective grid spacing dv^(1/3) = 0.1520

     iter     time        total  log10-change:
                         energy  eigst   dens
iter:   1 22:33:50   -39.154290
iter:   2 22:34:13   -38.945510  -1.63  -0.88
iter:   3 22:34:38   -38.070315  -1.23  -0.92
iter:   4 22:35:05   -38.671737  -1.19  -1.26
iter:   5 22:35:33   -38.049410  -1.33  -1.26
iter:   6 22:36:00   -38.050762  -3.13  -2.11
iter:   7 22:36:26   -38.115335  -2.12  -2.13
Timing:                              incl.     excl.
-----------------------------------------------------------
Hamiltonian:                         0.206     0.001   0.0% |
 Atomic:                             0.148     0.002   0.0% |
  XC Correction:                     0.146     0.146   0.1% |
 Calculate atomic Hamiltonians:      0.017     0.017   0.0% |
 Communicate:                        0.000     0.000   0.0% |
 Initialize Hamiltonian:             0.000     0.000   0.0% |
 Poisson:                            0.000     0.000   0.0% |
 XC 3D grid:                         0.039     0.039   0.0% |
LCAO initialization:                23.558     0.039   0.0% |
 LCAO eigensolver:                   1.332     0.004   0.0% |
  Calculate projections:             0.010     0.010   0.0% |
  DenseAtomicCorrection:             0.030     0.030   0.0% |
  Distribute overlap matrix:         0.003     0.003   0.0% |
  Orbital Layouts:                   0.065     0.065   0.0% |
  Potential matrix:                  1.120     1.120   0.5% |
  Sum over cells:                    0.099     0.099   0.0% |
 LCAO to grid:                      18.656    18.656   8.9% |---|
 Set positions (LCAO WFS):           3.530     0.457   0.2% |
  Basic WFS set positions:           0.001     0.001   0.0% |
  Basis functions set positions:     0.000     0.000   0.0% |
  P tci:                             1.310     1.310   0.6% |
  ST tci:                            1.714     1.714   0.8% |
  mktci:                             0.049     0.049   0.0% |
PWDescriptor:                        0.070     0.070   0.0% |
SCF-cycle:                         183.841     0.471   0.2% |
 Davidson:                         163.550    13.438   6.4% |--|
  Apply H:                          35.497    34.821  16.7% |------|
   HMM T:                            0.677     0.677   0.3% |
  Subspace diag:                    36.928     0.075   0.0% |
   calc_h_matrix:                   35.742     0.820   0.4% |
    Apply H:                        34.922    34.526  16.5% |------|
     HMM T:                          0.396     0.396   0.2% |
   diagonalize:                      0.241     0.241   0.1% |
   rotate_psi:                       0.870     0.870   0.4% |
  calc. matrices:                   74.875     4.976   2.4% ||
   Apply H:                         69.899    69.135  33.1% |------------|
    HMM T:                           0.764     0.764   0.4% |
  diagonalize:                       1.193     1.193   0.6% |
  rotate_psi:                        1.618     1.618   0.8% |
 Density:                           17.735     0.000   0.0% |
  Atomic density matrices:           0.128     0.128   0.1% |
  Mix:                               0.209     0.209   0.1% |
  Multipole moments:                 0.001     0.001   0.0% |
  Pseudo density:                   17.396    17.381   8.3% |--|
   Symmetrize density:               0.014     0.014   0.0% |
 Hamiltonian:                        1.607     0.015   0.0% |
  Atomic:                            1.113     0.022   0.0% |
   XC Correction:                    1.091     1.091   0.5% |
  Calculate atomic Hamiltonians:     0.137     0.137   0.1% |
  Communicate:                       0.000     0.000   0.0% |
  Poisson:                           0.004     0.004   0.0% |
  XC 3D grid:                        0.337     0.337   0.2% |
 Orthonormalize:                     0.478     0.009   0.0% |
  calc_s_matrix:                     0.132     0.132   0.1% |
  inverse-cholesky:                  0.010     0.010   0.0% |
  projections:                       0.275     0.275   0.1% |
  rotate_psi_s:                      0.052     0.052   0.0% |
Set symmetry:                        0.011     0.011   0.0% |
Other:                               1.411     1.411   0.7% |
-----------------------------------------------------------
Total:                                       209.096 100.0%

Memory usage: 1.10 GiB
Date: Mon Jul 18 22:36:34 2022
