
  ___ ___ ___ _ _ _  
 |   |   |_  | | | | 
 | | | | | . | | | | 
 |__ |  _|___|_____|  22.1.0
 |___|_|             

User:   gabrielbirnbaum@Gabriels-MacBook-Pro.local
Date:   Sat Aug  6 19:25:09 2022
Arch:   x86_64
Pid:    90398
Python: 3.9.13
gpaw:   /Users/gabrielbirnbaum/PycharmProjects/nanolithia/venv/lib/python3.9/site-packages/gpaw
_gpaw:  /Users/gabrielbirnbaum/PycharmProjects/nanolithia/venv/lib/python3.9/site-packages/
        _gpaw.cpython-39-darwin.so
ase:    /Users/gabrielbirnbaum/PycharmProjects/nanolithia/venv/lib/python3.9/site-packages/ase (version 3.22.1)
numpy:  /Users/gabrielbirnbaum/PycharmProjects/nanolithia/venv/lib/python3.9/site-packages/numpy (version 1.23.0)
scipy:  /Users/gabrielbirnbaum/PycharmProjects/nanolithia/venv/lib/python3.9/site-packages/scipy (version 1.8.1)
libxc:  5.2.3
units:  Angstrom and eV
cores: 1
OpenMP: False
OMP_NUM_THREADS: 1

Input parameters:
  convergence: {density: 0.001,
                eigenstates: 0.0001,
                energy: 0.0002}
  kpts: {gamma: True,
         size: (6, 6, 6)}
  mode: {ecut: 350.0,
         name: pw}
  spinpol: False
  xc: PBE

System changes: positions, numbers, cell, pbc, initial_charges, initial_magmoms 

Initialize ...

Li-setup:
  name: Lithium
  id: 830b4218f175192f93f959cfc0aad614
  Z: 3.0
  valence: 1
  core: 2
  charge: 0.0
  file: /Users/gabrielbirnbaum/dft_learning/DIR/gpaw-setups-0.9.20000/Li.PBE.gz
  compensation charges: gauss, rc=0.33, lmax=2
  cutoffs: 1.91(filt), 2.55(core),
  valence states:
                energy  radius
    2s(1.00)    -2.874   1.058
    2p(0.00)    -1.090   1.058
    *s          24.337   1.058

  Using partial waves for Li as LCAO basis

O-setup:
  name: Oxygen
  id: 32ecd46bf208036f09c70b0ec9a88b78
  Z: 8.0
  valence: 6
  core: 2
  charge: 0.0
  file: /Users/gabrielbirnbaum/dft_learning/DIR/gpaw-setups-0.9.20000/O.PBE.gz
  compensation charges: gauss, rc=0.21, lmax=2
  cutoffs: 1.17(filt), 0.83(core),
  valence states:
                energy  radius
    2s(2.00)   -23.961   0.688
    2p(4.00)    -9.029   0.598
    *s           3.251   0.688
    *p          18.182   0.598
    *d           0.000   0.619

  Using partial waves for O as LCAO basis

Reference energy: -8974.560486

Spin-paired calculation

Convergence criteria:
 Maximum [total energy] change in last 3 cyles: 0.0002 eV / electron
 Maximum integral of absolute [dens]ity change: 0.001 electrons / valence electron
 Maximum integral of absolute [eigenst]ate change: 0.0001 eV^2 / valence electron
 Maximum number of scf [iter]ations: 333
 (Square brackets indicate name in SCF output, whereas a 'c' in
 the SCF output indicates the quantity has converged.)

Symmetries present (total): 4

  ( 1  0  0)  ( 0  1  0)  ( 0 -1  0)  (-1  0  0)
  ( 0  1  0)  ( 1  0  0)  (-1  0  0)  ( 0 -1  0)
  ( 0  0  1)  ( 0  0 -1)  ( 0  0  1)  ( 0  0 -1)

216 k-points: 6 x 6 x 6 Monkhorst-Pack grid + [1/12,1/12,1/12]
68 k-points in the irreducible part of the Brillouin zone
       k-points in crystal coordinates                weights
   0:     0.00000000    0.00000000    0.00000000          1/216
   1:     0.00000000    0.00000000    0.16666667          2/216
   2:     0.00000000    0.00000000    0.33333333          2/216
   3:     0.00000000    0.00000000    0.50000000          1/216
   4:     0.16666667   -0.16666667   -0.33333333          2/216
   5:     0.16666667   -0.16666667   -0.16666667          2/216
   6:     0.16666667   -0.16666667    0.00000000          2/216
   7:     0.16666667   -0.16666667    0.16666667          2/216
   8:     0.16666667   -0.16666667    0.33333333          2/216
   9:     0.16666667   -0.16666667    0.50000000          2/216
          ...
  67:     0.50000000    0.50000000    0.50000000          1/216

Wave functions: Plane wave expansion
  Cutoff energy: 350.000 eV
  Number of coefficients (min, max): 991, 1029
  Pulay-stress correction: 0.000000 eV/Ang^3 (de/decut=0.000000)
  Using Numpy's FFT
  ScaLapack parameters: grid=1x1, blocksize=None
  Wavefunction extrapolation:
    Improved wavefunction reuse through dual PAW basis 

Occupation numbers: Fermi-Dirac: width=0.1000 eV
 

Eigensolver
   Davidson(niter=2) 

Densities:
  Coarse grid: 14*14*35 grid
  Fine grid: 28*28*70 grid
  Total Charge: 0.000000 

Density mixing:
  Method: separate
  Backend: pulay
  Linear mixing parameter: 0.05
  Mixing with 5 old densities
  Damping of long wave oscillations: 50 

Hamiltonian:
  XC and Coulomb potentials evaluated on a 28*28*70 grid
  Using the PBE Exchange-Correlation functional
  External potential:
    NoExternalPotential
 

XC parameters: PBE with 2 nearest neighbor stencil

Memory estimate:
  Process memory now: 117.86 MiB
  Calculator: 38.78 MiB
    Density: 3.22 MiB
      Arrays: 1.36 MiB
      Localized functions: 1.33 MiB
      Mixer: 0.52 MiB
    Hamiltonian: 0.92 MiB
      Arrays: 0.89 MiB
      XC: 0.00 MiB
      Poisson: 0.00 MiB
      vbar: 0.03 MiB
    Wavefunctions: 34.64 MiB
      Arrays psit_nG: 22.42 MiB
      Eigensolver: 0.48 MiB
      Projections: 1.57 MiB
      Projectors: 8.85 MiB
      PW-descriptor: 1.33 MiB

Total number of cores used: 1

Number of atoms: 8
Number of atomic orbitals: 32
Number of bands in calculation: 21
Number of valence electrons: 28
Bands to converge: occupied

... initialized

Initializing position-dependent things.

Density initialized from atomic densities
Creating initial wave functions:
  21 bands from LCAO basis set

                      
                      
                      
                      
             O        
                      
           LiO        
                      
        Li            
                      
           O Li       
                      
           O          
        Li            
                      
                      
                      
                      

Positions:
   0 Li     0.000000    0.000000    3.851761    ( 0.0000,  0.0000,  0.0000)
   1 Li     0.000000    0.000000    0.000000    ( 0.0000,  0.0000,  0.0000)
   2 Li     1.590181   -0.918093    5.777642    ( 0.0000,  0.0000,  0.0000)
   3 Li     1.590181    0.918093    1.925881    ( 0.0000,  0.0000,  0.0000)
   4 O      1.590181   -0.918093    1.150213    ( 0.0000,  0.0000,  0.0000)
   5 O      1.590181    0.918093    5.001974    ( 0.0000,  0.0000,  0.0000)
   6 O      1.590181    0.918093    6.553309    ( 0.0000,  0.0000,  0.0000)
   7 O      1.590181   -0.918093    2.701548    ( 0.0000,  0.0000,  0.0000)

Unit cell:
           periodic     x           y           z      points  spacing
  1. axis:    yes    1.590181   -2.754274    0.000000    14     0.1967
  2. axis:    yes    1.590181    2.754274    0.000000    14     0.1967
  3. axis:    yes    0.000000    0.000000    7.703522    35     0.2201

  Lengths:   3.180362   3.180362   7.703522
  Angles:   90.000000  90.000000 119.999995

Effective grid spacing dv^(1/3) = 0.2143

     iter     time        total  log10-change:
                         energy  eigst   dens
iter:   1 19:25:18   -25.848152
iter:   2 19:25:22   -25.761821  -1.66  -0.90
iter:   3 19:25:26   -25.007459  -1.83  -0.93
iter:   4 19:25:30   -24.972546  -2.34  -1.36
iter:   5 19:25:35   -24.960943  -2.97  -1.91
iter:   6 19:25:39   -24.961491  -4.41c -2.26
iter:   7 19:25:44   -24.961703c -4.84c -2.52
iter:   8 19:25:49   -24.962279c -4.94c -2.66
iter:   9 19:25:53   -24.962338c -4.58c -2.73
iter:  10 19:25:58   -24.962341c -6.52c -3.51c

Converged after 10 iterations.

Dipole moment: (0.000000, -0.000000, -0.000000) |e|*Ang

Energy contributions relative to reference atoms: (reference = -8974.560486)

Kinetic:        -23.060453
Potential:      +35.739953
External:        +0.000000
XC:             -37.210520
Entropy (-ST):   -0.000022
Local:           -0.431309
--------------------------
Free energy:    -24.962352
Extrapolated:   -24.962341

Showing only first 2 kpts
 Kpt  Band  Eigenvalues  Occupancy
  0    12      2.83832    1.99997
  0    13      2.84175    1.99997
  0    14      4.68907    0.00131
  0    15      6.81888    0.00000

  1    12      2.87992    1.99996
  1    13      2.88327    1.99996
  1    14      4.93108    0.00012
  1    15      6.81759    0.00000


Fermi level: 3.95608

Gap: 1.759 eV
Transition (v -> c):
  (s=0, k=6, n=13, [0.17, -0.17, 0.00]) -> (s=0, k=0, n=14, [0.00, 0.00, 0.00])
Writing to /Users/gabrielbirnbaum/PycharmProjects/nanolithia/calculators/Li2O2-mp-841-PBE-6x6x6-350.gpw (mode='')

Timing:                              incl.     excl.
-----------------------------------------------------------
Hamiltonian:                         0.158     0.001   0.0% |
 Atomic:                             0.135     0.001   0.0% |
  XC Correction:                     0.134     0.134   0.3% |
 Calculate atomic Hamiltonians:      0.007     0.007   0.0% |
 Communicate:                        0.000     0.000   0.0% |
 Initialize Hamiltonian:             0.000     0.000   0.0% |
 Poisson:                            0.000     0.000   0.0% |
 XC 3D grid:                         0.015     0.015   0.0% |
LCAO initialization:                 4.986     0.067   0.1% |
 LCAO eigensolver:                   0.451     0.002   0.0% |
  Calculate projections:             0.005     0.005   0.0% |
  DenseAtomicCorrection:             0.014     0.014   0.0% |
  Distribute overlap matrix:         0.001     0.001   0.0% |
  Orbital Layouts:                   0.029     0.029   0.1% |
  Potential matrix:                  0.333     0.333   0.7% |
  Sum over cells:                    0.067     0.067   0.1% |
 LCAO to grid:                       3.004     3.004   6.1% |-|
 Set positions (LCAO WFS):           1.464     0.201   0.4% |
  Basic WFS set positions:           0.001     0.001   0.0% |
  Basis functions set positions:     0.000     0.000   0.0% |
  P tci:                             0.541     0.541   1.1% |
  ST tci:                            0.686     0.686   1.4% ||
  mktci:                             0.035     0.035   0.1% |
PWDescriptor:                        0.016     0.016   0.0% |
SCF-cycle:                          42.983     0.097   0.2% |
 Davidson:                          37.777     3.323   6.7% |--|
  Apply H:                           7.564     7.432  15.1% |-----|
   HMM T:                            0.132     0.132   0.3% |
  Subspace diag:                     8.916     0.040   0.1% |
   calc_h_matrix:                    8.539     0.266   0.5% |
    Apply H:                         8.273     8.135  16.5% |------|
     HMM T:                          0.139     0.139   0.3% |
   diagonalize:                      0.138     0.138   0.3% |
   rotate_psi:                       0.200     0.200   0.4% |
  calc. matrices:                   16.944     1.770   3.6% ||
   Apply H:                         15.175    14.916  30.3% |-----------|
    HMM T:                           0.259     0.259   0.5% |
  diagonalize:                       0.658     0.658   1.3% ||
  rotate_psi:                        0.371     0.371   0.8% |
 Density:                            3.517     0.000   0.0% |
  Atomic density matrices:           0.072     0.072   0.1% |
  Mix:                               0.086     0.086   0.2% |
  Multipole moments:                 0.001     0.001   0.0% |
  Pseudo density:                    3.359     3.352   6.8% |--|
   Symmetrize density:               0.006     0.006   0.0% |
 Hamiltonian:                        1.507     0.004   0.0% |
  Atomic:                            1.297     0.007   0.0% |
   XC Correction:                    1.290     1.290   2.6% ||
  Calculate atomic Hamiltonians:     0.078     0.078   0.2% |
  Communicate:                       0.000     0.000   0.0% |
  Poisson:                           0.003     0.003   0.0% |
  XC 3D grid:                        0.124     0.124   0.3% |
 Orthonormalize:                     0.085     0.004   0.0% |
  calc_s_matrix:                     0.018     0.018   0.0% |
  inverse-cholesky:                  0.004     0.004   0.0% |
  projections:                       0.050     0.050   0.1% |
  rotate_psi_s:                      0.009     0.009   0.0% |
Set symmetry:                        0.004     0.004   0.0% |
Other:                               1.077     1.077   2.2% ||
-----------------------------------------------------------
Total:                                        49.225 100.0%

Date: Sat Aug  6 19:25:59 2022
