
  ___ ___ ___ _ _ _  
 |   |   |_  | | | | 
 | | | | | . | | | | 
 |__ |  _|___|_____|  22.1.0
 |___|_|             

User:   gabrielbirnbaum@Gabriels-MacBook-Pro.local
Date:   Wed Aug  3 19:09:35 2022
Arch:   x86_64
Pid:    19264
Python: 3.9.13
gpaw:   /Users/gabrielbirnbaum/PycharmProjects/nanolithia/venv/lib/python3.9/site-packages/gpaw
_gpaw:  /Users/gabrielbirnbaum/PycharmProjects/nanolithia/venv/lib/python3.9/site-packages/
        _gpaw.cpython-39-darwin.so
ase:    /Users/gabrielbirnbaum/PycharmProjects/nanolithia/venv/lib/python3.9/site-packages/ase (version 3.22.1)
numpy:  /Users/gabrielbirnbaum/PycharmProjects/nanolithia/venv/lib/python3.9/site-packages/numpy (version 1.23.0)
scipy:  /Users/gabrielbirnbaum/PycharmProjects/nanolithia/venv/lib/python3.9/site-packages/scipy (version 1.8.1)
libxc:  5.2.3
units:  Angstrom and eV
cores: 1
OpenMP: False
OMP_NUM_THREADS: 1

Input parameters:
  convergence: {density: 0.001,
                eigenstates: 0.0001,
                energy: 0.0002}
  kpts: {gamma: True,
         size: (4, 4, 4)}
  mode: {ecut: 1000.0,
         name: pw}
  spinpol: False
  xc: PBE

System changes: positions, numbers, cell, pbc, initial_charges, initial_magmoms 

Initialize ...

Li-setup:
  name: Lithium
  id: 830b4218f175192f93f959cfc0aad614
  Z: 3.0
  valence: 1
  core: 2
  charge: 0.0
  file: /Users/gabrielbirnbaum/dft_learning/DIR/gpaw-setups-0.9.20000/Li.PBE.gz
  compensation charges: gauss, rc=0.33, lmax=2
  cutoffs: 1.91(filt), 2.55(core),
  valence states:
                energy  radius
    2s(1.00)    -2.874   1.058
    2p(0.00)    -1.090   1.058
    *s          24.337   1.058

  Using partial waves for Li as LCAO basis

O-setup:
  name: Oxygen
  id: 32ecd46bf208036f09c70b0ec9a88b78
  Z: 8.0
  valence: 6
  core: 2
  charge: 0.0
  file: /Users/gabrielbirnbaum/dft_learning/DIR/gpaw-setups-0.9.20000/O.PBE.gz
  compensation charges: gauss, rc=0.21, lmax=2
  cutoffs: 1.17(filt), 0.83(core),
  valence states:
                energy  radius
    2s(2.00)   -23.961   0.688
    2p(4.00)    -9.029   0.598
    *s           3.251   0.688
    *p          18.182   0.598
    *d           0.000   0.619

  Using partial waves for O as LCAO basis

Reference energy: -8568.984845

Spin-paired calculation

Convergence criteria:
 Maximum [total energy] change in last 3 cyles: 0.0002 eV / electron
 Maximum integral of absolute [dens]ity change: 0.001 electrons / valence electron
 Maximum integral of absolute [eigenst]ate change: 0.0001 eV^2 / valence electron
 Maximum number of scf [iter]ations: 333
 (Square brackets indicate name in SCF output, whereas a 'c' in
 the SCF output indicates the quantity has converged.)

Symmetries present (total): 4

  ( 1  0  0)  ( 1  0  0)  (-1  0  0)  (-1  0  0)
  ( 0  1  0)  ( 0 -1  0)  ( 0  1  0)  ( 0 -1  0)
  ( 0  0  1)  ( 0  0 -1)  ( 0  0  1)  ( 0  0 -1)

64 k-points: 4 x 4 x 4 Monkhorst-Pack grid + [1/8,1/8,1/8]
30 k-points in the irreducible part of the Brillouin zone
       k-points in crystal coordinates                weights
   0:     0.00000000    0.00000000    0.00000000          1/64
   1:     0.00000000    0.00000000    0.25000000          2/64
   2:     0.00000000    0.00000000    0.50000000          1/64
   3:     0.00000000    0.25000000   -0.25000000          2/64
   4:     0.00000000    0.25000000    0.00000000          2/64
   5:     0.00000000    0.25000000    0.25000000          2/64
   6:     0.00000000    0.25000000    0.50000000          2/64
   7:     0.00000000    0.50000000    0.00000000          1/64
   8:     0.00000000    0.50000000    0.25000000          2/64
   9:     0.00000000    0.50000000    0.50000000          1/64
          ...
  29:     0.50000000    0.50000000    0.50000000          1/64

Wave functions: Plane wave expansion
  Cutoff energy: 1000.000 eV
  Number of coefficients (min, max): 4130, 4168
  Pulay-stress correction: 0.000000 eV/Ang^3 (de/decut=0.000000)
  Using Numpy's FFT
  ScaLapack parameters: grid=1x1, blocksize=None
  Wavefunction extrapolation:
    Improved wavefunction reuse through dual PAW basis 

Occupation numbers: Fermi-Dirac: width=0.1000 eV
 

Eigensolver
   Davidson(niter=2) 

Densities:
  Coarse grid: 24*30*36 grid
  Fine grid: 48*60*72 grid
  Total Charge: 0.000000 

Density mixing:
  Method: separate
  Backend: pulay
  Linear mixing parameter: 0.05
  Mixing with 5 old densities
  Damping of long wave oscillations: 50 

Hamiltonian:
  XC and Coulomb potentials evaluated on a 48*60*72 grid
  Using the PBE Exchange-Correlation functional
  External potential:
    NoExternalPotential
 

XC parameters: PBE with 2 nearest neighbor stencil

Memory estimate:
  Process memory now: 723.40 MiB
  Calculator: 75.54 MiB
    Density: 12.62 MiB
      Arrays: 5.14 MiB
      Localized functions: 5.50 MiB
      Mixer: 1.98 MiB
    Hamiltonian: 3.50 MiB
      Arrays: 3.36 MiB
      XC: 0.00 MiB
      Poisson: 0.00 MiB
      vbar: 0.13 MiB
    Wavefunctions: 59.43 MiB
      Arrays psit_nG: 38.16 MiB
      Eigensolver: 1.65 MiB
      Projections: 0.57 MiB
      Projectors: 16.15 MiB
      PW-descriptor: 2.90 MiB

Total number of cores used: 1

Number of atoms: 6
Number of atomic orbitals: 24
Number of bands in calculation: 20
Number of valence electrons: 26
Bands to converge: occupied

... initialized

Initializing position-dependent things.

Density initialized from atomic densities
Creating initial wave functions:
  20 bands from LCAO basis set

   .------.  
  /|      |  
 * | O    |  
 | O      |  
 | | Li   |  
 O |      |  
 | .--O---.  
 |/      /   
 Li-----*    

Positions:
   0 Li     1.480551    1.992835    2.448045    ( 0.0000,  0.0000,  0.0000)
   1 Li     0.000000    0.000000    0.000000    ( 0.0000,  0.0000,  0.0000)
   2 O      1.480551    2.518377    0.419218    ( 0.0000,  0.0000,  0.0000)
   3 O      1.480551    1.467292    4.476872    ( 0.0000,  0.0000,  0.0000)
   4 O      0.000000    0.525542    2.028827    ( 0.0000,  0.0000,  0.0000)
   5 O      0.000000    3.460127    2.867263    ( 0.0000,  0.0000,  0.0000)

Unit cell:
           periodic     x           y           z      points  spacing
  1. axis:    yes    2.961101    0.000000    0.000000    24     0.1234
  2. axis:    yes    0.000000    3.985669    0.000000    30     0.1329
  3. axis:    yes    0.000000    0.000000    4.896090    36     0.1360

  Lengths:   2.961101   3.985669   4.896090
  Angles:   90.000000  90.000000  90.000000

Effective grid spacing dv^(1/3) = 0.1306

     iter     time        total  log10-change:
                         energy  eigst   dens
iter:   1 19:15:04   -30.808626
iter:   2 19:15:12   -30.697727  -1.59  -1.02
iter:   3 19:15:19   -30.020935  -1.43  -1.05
iter:   4 19:15:26   -30.072470  -1.90  -1.46
iter:   5 19:15:33   -30.010748  -2.14  -1.67
iter:   6 19:15:39   -30.011777  -3.33  -2.27
iter:   7 19:15:46   -30.018211  -2.57  -2.29
iter:   8 19:15:53   -30.010912  -3.64  -2.23
iter:   9 19:16:00   -30.010478  -4.84c -2.58
iter:  10 19:16:06   -30.009318c -3.72  -2.61
iter:  11 19:16:13   -30.009308c -5.38c -3.63c

Converged after 11 iterations.

Dipole moment: (0.000000, 0.000000, 0.000000) |e|*Ang

Energy contributions relative to reference atoms: (reference = -8568.984845)

Kinetic:        +32.425396
Potential:      -33.959462
External:        +0.000000
XC:             -29.315771
Entropy (-ST):   -0.162438
Local:           +0.921749
--------------------------
Free energy:    -30.090527
Extrapolated:   -30.009308

Showing only first 2 kpts
 Kpt  Band  Eigenvalues  Occupancy
  0    11      2.13738    0.28609
  0    12      2.40288    0.02320
  0    13      2.49217    0.00956
  0    14      8.43286    0.00000

  1    11      1.79853    1.66356
  1    12      2.42008    0.01957
  1    13      2.48288    0.01049
  1    14      8.12768    0.00000


Fermi level: 1.95836

No gap
Writing to /Users/gabrielbirnbaum/PycharmProjects/nanolithia/calculators/LiO2-mp-1018789-PBE-4x4x4-1000.gpw (mode='')

Timing:                              incl.     excl.
-----------------------------------------------------------
Hamiltonian:                         0.180     0.001   0.0% |
 Atomic:                             0.120     0.001   0.0% |
  XC Correction:                     0.119     0.119   0.0% |
 Calculate atomic Hamiltonians:      0.011     0.011   0.0% |
 Communicate:                        0.000     0.000   0.0% |
 Initialize Hamiltonian:             0.000     0.000   0.0% |
 Poisson:                            0.001     0.001   0.0% |
 XC 3D grid:                         0.047     0.047   0.0% |
LCAO initialization:                 5.158     0.036   0.0% |
 LCAO eigensolver:                   1.143     0.001   0.0% |
  Calculate projections:             0.002     0.002   0.0% |
  DenseAtomicCorrection:             0.005     0.005   0.0% |
  Distribute overlap matrix:         0.001     0.001   0.0% |
  Orbital Layouts:                   0.011     0.011   0.0% |
  Potential matrix:                  1.114     1.114   0.2% |
  Sum over cells:                    0.009     0.009   0.0% |
 LCAO to grid:                       3.414     3.414   0.7% |
 Set positions (LCAO WFS):           0.565     0.089   0.0% |
  Basic WFS set positions:           0.001     0.001   0.0% |
  Basis functions set positions:     0.000     0.000   0.0% |
  P tci:                             0.194     0.194   0.0% |
  ST tci:                            0.254     0.254   0.1% |
  mktci:                             0.028     0.028   0.0% |
PWDescriptor:                        0.025     0.025   0.0% |
SCF-cycle:                          74.567     0.162   0.0% |
 Davidson:                          65.225     5.025   1.0% |
  Apply H:                          14.429    14.157   2.9% ||
   HMM T:                            0.272     0.272   0.1% |
  Subspace diag:                    14.972     0.021   0.0% |
   calc_h_matrix:                   14.522     0.289   0.1% |
    Apply H:                        14.233    14.099   2.9% ||
     HMM T:                          0.134     0.134   0.0% |
   diagonalize:                      0.094     0.094   0.0% |
   rotate_psi:                       0.335     0.335   0.1% |
  calc. matrices:                   29.879     1.676   0.3% |
   Apply H:                         28.203    27.901   5.8% |-|
    HMM T:                           0.301     0.301   0.1% |
  diagonalize:                       0.311     0.311   0.1% |
  rotate_psi:                        0.609     0.609   0.1% |
 Density:                            7.076     0.000   0.0% |
  Atomic density matrices:           0.033     0.033   0.0% |
  Mix:                               0.343     0.343   0.1% |
  Multipole moments:                 0.001     0.001   0.0% |
  Pseudo density:                    6.699     6.672   1.4% ||
   Symmetrize density:               0.027     0.027   0.0% |
 Hamiltonian:                        1.977     0.021   0.0% |
  Atomic:                            1.167     0.007   0.0% |
   XC Correction:                    1.159     1.159   0.2% |
  Calculate atomic Hamiltonians:     0.201     0.201   0.0% |
  Communicate:                       0.000     0.000   0.0% |
  Poisson:                           0.009     0.009   0.0% |
  XC 3D grid:                        0.580     0.580   0.1% |
 Orthonormalize:                     0.126     0.002   0.0% |
  calc_s_matrix:                     0.022     0.022   0.0% |
  inverse-cholesky:                  0.002     0.002   0.0% |
  projections:                       0.085     0.085   0.0% |
  rotate_psi_s:                      0.015     0.015   0.0% |
Set symmetry:                        0.002     0.002   0.0% |
Other:                             403.188   403.188  83.5% |--------------------------------|
-----------------------------------------------------------
Total:                                       483.122 100.0%

Date: Wed Aug  3 19:17:38 2022
