
  ___ ___ ___ _ _ _  
 |   |   |_  | | | | 
 | | | | | . | | | | 
 |__ |  _|___|_____|  22.1.0
 |___|_|             

User:   gabrielbirnbaum@Gabriels-MacBook-Pro.local
Date:   Sat Aug  6 22:00:06 2022
Arch:   x86_64
Pid:    10245
Python: 3.9.13
gpaw:   /Users/gabrielbirnbaum/PycharmProjects/nanolithia/venv/lib/python3.9/site-packages/gpaw
_gpaw:  /Users/gabrielbirnbaum/PycharmProjects/nanolithia/venv/lib/python3.9/site-packages/
        _gpaw.cpython-39-darwin.so
ase:    /Users/gabrielbirnbaum/PycharmProjects/nanolithia/venv/lib/python3.9/site-packages/ase (version 3.22.1)
numpy:  /Users/gabrielbirnbaum/PycharmProjects/nanolithia/venv/lib/python3.9/site-packages/numpy (version 1.23.0)
scipy:  /Users/gabrielbirnbaum/PycharmProjects/nanolithia/venv/lib/python3.9/site-packages/scipy (version 1.8.1)
libxc:  5.2.3
units:  Angstrom and eV
cores: 1
OpenMP: False
OMP_NUM_THREADS: 1

Input parameters:
  convergence: {density: 0.001,
                eigenstates: 0.0001,
                energy: 0.0002}
  kpts: {gamma: True,
         size: (6, 6, 6)}
  mode: {ecut: 540.0,
         name: pw}
  spinpol: False
  xc: PBE

Input parameters:
  setups: {O: :p,0.33,0}

System changes: positions, numbers, cell, pbc, initial_charges, initial_magmoms 

Initialize ...

Li-setup:
  name: Lithium
  id: 830b4218f175192f93f959cfc0aad614
  Z: 3.0
  valence: 1
  core: 2
  charge: 0.0
  file: /Users/gabrielbirnbaum/dft_learning/DIR/gpaw-setups-0.9.20000/Li.PBE.gz
  compensation charges: gauss, rc=0.33, lmax=2
  cutoffs: 1.91(filt), 2.55(core),
  valence states:
                energy  radius
    2s(1.00)    -2.874   1.058
    2p(0.00)    -1.090   1.058
    *s          24.337   1.058

  Using partial waves for Li as LCAO basis

O-setup:
  name: Oxygen
  id: 32ecd46bf208036f09c70b0ec9a88b78
  Z: 8.0
  valence: 6
  core: 2
  charge: 0.0
  Hubbard U: 0.330000 eV (l=1, scale=False)
  file: /Users/gabrielbirnbaum/dft_learning/DIR/gpaw-setups-0.9.20000/O.PBE.gz
  compensation charges: gauss, rc=0.21, lmax=2
  cutoffs: 1.17(filt), 0.83(core),
  valence states:
                energy  radius
    2s(2.00)   -23.961   0.688
    2p(4.00)    -9.029   0.598
    *s           3.251   0.688
    *p          18.182   0.598
    *d           0.000   0.619

  Using partial waves for O as LCAO basis

Reference energy: -8568.984845

Spin-paired calculation

Convergence criteria:
 Maximum [total energy] change in last 3 cyles: 0.0002 eV / electron
 Maximum integral of absolute [dens]ity change: 0.001 electrons / valence electron
 Maximum integral of absolute [eigenst]ate change: 0.0001 eV^2 / valence electron
 Maximum number of scf [iter]ations: 333
 (Square brackets indicate name in SCF output, whereas a 'c' in
 the SCF output indicates the quantity has converged.)

Symmetries present (total): 4

  ( 1  0  0)  ( 1  0  0)  (-1  0  0)  (-1  0  0)
  ( 0  1  0)  ( 0 -1  0)  ( 0  1  0)  ( 0 -1  0)
  ( 0  0  1)  ( 0  0 -1)  ( 0  0  1)  ( 0  0 -1)

216 k-points: 6 x 6 x 6 Monkhorst-Pack grid + [1/12,1/12,1/12]
80 k-points in the irreducible part of the Brillouin zone
       k-points in crystal coordinates                weights
   0:     0.00000000    0.00000000    0.00000000          1/216
   1:     0.00000000    0.00000000    0.16666667          2/216
   2:     0.00000000    0.00000000    0.33333333          2/216
   3:     0.00000000    0.00000000    0.50000000          1/216
   4:     0.00000000    0.16666667   -0.33333333          2/216
   5:     0.00000000    0.16666667   -0.16666667          2/216
   6:     0.00000000    0.16666667    0.00000000          2/216
   7:     0.00000000    0.16666667    0.16666667          2/216
   8:     0.00000000    0.16666667    0.33333333          2/216
   9:     0.00000000    0.16666667    0.50000000          2/216
          ...
  79:     0.50000000    0.50000000    0.50000000          1/216

Wave functions: Plane wave expansion
  Cutoff energy: 540.000 eV
  Number of coefficients (min, max): 1628, 1683
  Pulay-stress correction: 0.000000 eV/Ang^3 (de/decut=0.000000)
  Using Numpy's FFT
  ScaLapack parameters: grid=1x1, blocksize=None
  Wavefunction extrapolation:
    Improved wavefunction reuse through dual PAW basis 

Occupation numbers: Fermi-Dirac: width=0.1000 eV
 

Eigensolver
   Davidson(niter=2) 

Densities:
  Coarse grid: 16*24*27 grid
  Fine grid: 32*48*54 grid
  Total Charge: 0.000000 

Density mixing:
  Method: separate
  Backend: pulay
  Linear mixing parameter: 0.05
  Mixing with 5 old densities
  Damping of long wave oscillations: 50 

Hamiltonian:
  XC and Coulomb potentials evaluated on a 32*48*54 grid
  Using the PBE Exchange-Correlation functional
  External potential:
    NoExternalPotential
 

XC parameters: PBE with 2 nearest neighbor stencil

Memory estimate:
  Process memory now: 131.77 MiB
  Calculator: 69.28 MiB
    Density: 5.03 MiB
      Arrays: 2.06 MiB
      Localized functions: 2.19 MiB
      Mixer: 0.79 MiB
    Hamiltonian: 1.40 MiB
      Arrays: 1.34 MiB
      XC: 0.00 MiB
      Poisson: 0.00 MiB
      vbar: 0.05 MiB
    Wavefunctions: 62.85 MiB
      Arrays psit_nG: 41.09 MiB
      Eigensolver: 0.70 MiB
      Projections: 1.51 MiB
      Projectors: 17.09 MiB
      PW-descriptor: 2.45 MiB

Total number of cores used: 1

Number of atoms: 6
Number of atomic orbitals: 24
Number of bands in calculation: 20
Number of valence electrons: 26
Bands to converge: occupied

... initialized

Initializing position-dependent things.

Density initialized from atomic densities
Creating initial wave functions:
  20 bands from LCAO basis set

   .------.  
  /|      |  
 * | O    |  
 | O      |  
 | | Li   |  
 O |      |  
 | .--O---.  
 |/      /   
 Li-----*    

Positions:
   0 Li     1.480551    1.992835    2.448045    ( 0.0000,  0.0000,  0.0000)
   1 Li     0.000000    0.000000    0.000000    ( 0.0000,  0.0000,  0.0000)
   2 O      1.480551    2.518377    0.419218    ( 0.0000,  0.0000,  0.0000)
   3 O      1.480551    1.467292    4.476872    ( 0.0000,  0.0000,  0.0000)
   4 O      0.000000    0.525542    2.028827    ( 0.0000,  0.0000,  0.0000)
   5 O      0.000000    3.460127    2.867263    ( 0.0000,  0.0000,  0.0000)

Unit cell:
           periodic     x           y           z      points  spacing
  1. axis:    yes    2.961101    0.000000    0.000000    16     0.1851
  2. axis:    yes    0.000000    3.985669    0.000000    24     0.1661
  3. axis:    yes    0.000000    0.000000    4.896090    27     0.1813

  Lengths:   2.961101   3.985669   4.896090
  Angles:   90.000000  90.000000  90.000000

Effective grid spacing dv^(1/3) = 0.1773

     iter     time        total  log10-change:
                         energy  eigst   dens
iter:   1 22:00:19   -28.913223
iter:   2 22:00:27   -28.804108  -1.73  -1.01
iter:   3 22:00:37   -28.126470  -1.52  -1.05
iter:   4 22:00:48   -28.144995  -2.18  -1.48
iter:   5 22:00:59   -28.133562  -2.25  -1.66
iter:   6 22:01:10   -28.126215  -4.14c -2.03
iter:   7 22:01:20   -28.123833  -4.73c -2.16
iter:   8 22:01:30   -28.121025c -3.10  -2.22
iter:   9 22:01:40   -28.120465c -5.18c -2.65
iter:  10 22:01:49   -28.120575c -5.68c -2.76
iter:  11 22:01:58   -28.119893c -4.50c -2.74
iter:  12 22:02:08   -28.119797c -5.01c -3.28c

Converged after 12 iterations.

Dipole moment: (0.000000, -0.000000, 0.000000) |e|*Ang

Energy contributions relative to reference atoms: (reference = -8568.984845)

Kinetic:        +25.203882
Potential:      -25.513790
External:        +0.000000
XC:             -28.072881
Entropy (-ST):   -0.194890
Local:           +0.360437
--------------------------
Free energy:    -28.217242
Extrapolated:   -28.119797

Showing only first 2 kpts
 Kpt  Band  Eigenvalues  Occupancy
  0    11      2.17570    0.36180
  0    12      2.39249    0.04929
  0    13      2.47858    0.02114
  0    14      8.44540    0.00000

  1    11      2.01726    1.03704
  1    12      2.40653    0.04297
  1    13      2.48096    0.02065
  1    14      8.29243    0.00000


Fermi level: 2.02468

No gap
Writing to /Users/gabrielbirnbaum/PycharmProjects/nanolithia/calculators/LiO2-mp-1018789-PBE-6x6x6-540.gpw (mode='')

Timing:                              incl.     excl.
-----------------------------------------------------------
Hamiltonian:                         0.148     0.001   0.0% |
 Atomic:                             0.112     0.003   0.0% |
  XC Correction:                     0.110     0.110   0.1% |
 Calculate atomic Hamiltonians:      0.013     0.013   0.0% |
 Communicate:                        0.000     0.000   0.0% |
 Initialize Hamiltonian:             0.000     0.000   0.0% |
 Poisson:                            0.000     0.000   0.0% |
 XC 3D grid:                         0.021     0.021   0.0% |
LCAO initialization:                 5.467     0.029   0.0% |
 LCAO eigensolver:                   0.468     0.002   0.0% |
  Calculate projections:             0.004     0.004   0.0% |
  DenseAtomicCorrection:             0.012     0.012   0.0% |
  Distribute overlap matrix:         0.001     0.001   0.0% |
  Orbital Layouts:                   0.029     0.029   0.0% |
  Potential matrix:                  0.394     0.394   0.3% |
  Sum over cells:                    0.024     0.024   0.0% |
 LCAO to grid:                       3.910     3.910   3.2% ||
 Set positions (LCAO WFS):           1.060     0.151   0.1% |
  Basic WFS set positions:           0.001     0.001   0.0% |
  Basis functions set positions:     0.000     0.000   0.0% |
  P tci:                             0.405     0.405   0.3% |
  ST tci:                            0.480     0.480   0.4% |
  mktci:                             0.023     0.023   0.0% |
PWDescriptor:                        0.023     0.023   0.0% |
SCF-cycle:                         115.060     0.513   0.4% |
 Davidson:                         101.734     7.837   6.4% |--|
  Apply H:                          22.020    21.729  17.8% |------|
   HMM T:                            0.291     0.291   0.2% |
  Subspace diag:                    23.281     0.071   0.1% |
   calc_h_matrix:                   22.464     0.538   0.4% |
    Apply H:                        21.925    21.634  17.7% |------|
     HMM T:                          0.292     0.292   0.2% |
   diagonalize:                      0.247     0.247   0.2% |
   rotate_psi:                       0.499     0.499   0.4% |
  calc. matrices:                   46.580     3.432   2.8% ||
   Apply H:                         43.148    42.580  34.9% |-------------|
    HMM T:                           0.567     0.567   0.5% |
  diagonalize:                       1.091     1.091   0.9% |
  rotate_psi:                        0.924     0.924   0.8% |
 Density:                           10.526     0.000   0.0% |
  Atomic density matrices:           0.103     0.103   0.1% |
  Mix:                               0.244     0.244   0.2% |
  Multipole moments:                 0.002     0.002   0.0% |
  Pseudo density:                   10.178    10.163   8.3% |--|
   Symmetrize density:               0.014     0.014   0.0% |
 Hamiltonian:                        2.130     0.012   0.0% |
  Atomic:                            1.653     0.039   0.0% |
   XC Correction:                    1.614     1.614   1.3% ||
  Calculate atomic Hamiltonians:     0.142     0.142   0.1% |
  Communicate:                       0.000     0.000   0.0% |
  Poisson:                           0.004     0.004   0.0% |
  XC 3D grid:                        0.319     0.319   0.3% |
 Orthonormalize:                     0.157     0.005   0.0% |
  calc_s_matrix:                     0.032     0.032   0.0% |
  inverse-cholesky:                  0.006     0.006   0.0% |
  projections:                       0.098     0.098   0.1% |
  rotate_psi_s:                      0.016     0.016   0.0% |
Set symmetry:                        0.004     0.004   0.0% |
Other:                               1.480     1.480   1.2% |
-----------------------------------------------------------
Total:                                       122.182 100.0%

Date: Sat Aug  6 22:02:08 2022
