
  ___ ___ ___ _ _ _  
 |   |   |_  | | | | 
 | | | | | . | | | | 
 |__ |  _|___|_____|  22.1.0
 |___|_|             

User:   gabrielbirnbaum@Gabriels-MacBook-Pro.local
Date:   Sat Aug  6 22:02:53 2022
Arch:   x86_64
Pid:    10685
Python: 3.9.13
gpaw:   /Users/gabrielbirnbaum/PycharmProjects/nanolithia/venv/lib/python3.9/site-packages/gpaw
_gpaw:  /Users/gabrielbirnbaum/PycharmProjects/nanolithia/venv/lib/python3.9/site-packages/
        _gpaw.cpython-39-darwin.so
ase:    /Users/gabrielbirnbaum/PycharmProjects/nanolithia/venv/lib/python3.9/site-packages/ase (version 3.22.1)
numpy:  /Users/gabrielbirnbaum/PycharmProjects/nanolithia/venv/lib/python3.9/site-packages/numpy (version 1.23.0)
scipy:  /Users/gabrielbirnbaum/PycharmProjects/nanolithia/venv/lib/python3.9/site-packages/scipy (version 1.8.1)
libxc:  5.2.3
units:  Angstrom and eV
cores: 1
OpenMP: False
OMP_NUM_THREADS: 1

Input parameters:
  convergence: {density: 0.001,
                eigenstates: 0.0001,
                energy: 0.0002}
  kpts: {gamma: True,
         size: (6, 6, 6)}
  mode: {ecut: 800.0,
         name: pw}
  spinpol: False
  xc: PBE

Input parameters:
  setups: {O: :p,0.33,0}

System changes: positions, numbers, cell, pbc, initial_charges, initial_magmoms 

Initialize ...

Li-setup:
  name: Lithium
  id: 830b4218f175192f93f959cfc0aad614
  Z: 3.0
  valence: 1
  core: 2
  charge: 0.0
  file: /Users/gabrielbirnbaum/dft_learning/DIR/gpaw-setups-0.9.20000/Li.PBE.gz
  compensation charges: gauss, rc=0.33, lmax=2
  cutoffs: 1.91(filt), 2.55(core),
  valence states:
                energy  radius
    2s(1.00)    -2.874   1.058
    2p(0.00)    -1.090   1.058
    *s          24.337   1.058

  Using partial waves for Li as LCAO basis

O-setup:
  name: Oxygen
  id: 32ecd46bf208036f09c70b0ec9a88b78
  Z: 8.0
  valence: 6
  core: 2
  charge: 0.0
  Hubbard U: 0.330000 eV (l=1, scale=False)
  file: /Users/gabrielbirnbaum/dft_learning/DIR/gpaw-setups-0.9.20000/O.PBE.gz
  compensation charges: gauss, rc=0.21, lmax=2
  cutoffs: 1.17(filt), 0.83(core),
  valence states:
                energy  radius
    2s(2.00)   -23.961   0.688
    2p(4.00)    -9.029   0.598
    *s           3.251   0.688
    *p          18.182   0.598
    *d           0.000   0.619

  Using partial waves for O as LCAO basis

Reference energy: -8568.984845

Spin-paired calculation

Convergence criteria:
 Maximum [total energy] change in last 3 cyles: 0.0002 eV / electron
 Maximum integral of absolute [dens]ity change: 0.001 electrons / valence electron
 Maximum integral of absolute [eigenst]ate change: 0.0001 eV^2 / valence electron
 Maximum number of scf [iter]ations: 333
 (Square brackets indicate name in SCF output, whereas a 'c' in
 the SCF output indicates the quantity has converged.)

Symmetries present (total): 4

  ( 1  0  0)  ( 1  0  0)  (-1  0  0)  (-1  0  0)
  ( 0  1  0)  ( 0 -1  0)  ( 0  1  0)  ( 0 -1  0)
  ( 0  0  1)  ( 0  0 -1)  ( 0  0  1)  ( 0  0 -1)

216 k-points: 6 x 6 x 6 Monkhorst-Pack grid + [1/12,1/12,1/12]
80 k-points in the irreducible part of the Brillouin zone
       k-points in crystal coordinates                weights
   0:     0.00000000    0.00000000    0.00000000          1/216
   1:     0.00000000    0.00000000    0.16666667          2/216
   2:     0.00000000    0.00000000    0.33333333          2/216
   3:     0.00000000    0.00000000    0.50000000          1/216
   4:     0.00000000    0.16666667   -0.33333333          2/216
   5:     0.00000000    0.16666667   -0.16666667          2/216
   6:     0.00000000    0.16666667    0.00000000          2/216
   7:     0.00000000    0.16666667    0.16666667          2/216
   8:     0.00000000    0.16666667    0.33333333          2/216
   9:     0.00000000    0.16666667    0.50000000          2/216
          ...
  79:     0.50000000    0.50000000    0.50000000          1/216

Wave functions: Plane wave expansion
  Cutoff energy: 800.000 eV
  Number of coefficients (min, max): 2940, 2996
  Pulay-stress correction: 0.000000 eV/Ang^3 (de/decut=0.000000)
  Using Numpy's FFT
  ScaLapack parameters: grid=1x1, blocksize=None
  Wavefunction extrapolation:
    Improved wavefunction reuse through dual PAW basis 

Occupation numbers: Fermi-Dirac: width=0.1000 eV
 

Eigensolver
   Davidson(niter=2) 

Densities:
  Coarse grid: 20*27*32 grid
  Fine grid: 40*54*64 grid
  Total Charge: 0.000000 

Density mixing:
  Method: separate
  Backend: pulay
  Linear mixing parameter: 0.05
  Mixing with 5 old densities
  Damping of long wave oscillations: 50 

Hamiltonian:
  XC and Coulomb potentials evaluated on a 40*54*64 grid
  Using the PBE Exchange-Correlation functional
  External potential:
    NoExternalPotential
 

XC parameters: PBE with 2 nearest neighbor stencil

Memory estimate:
  Process memory now: 153.41 MiB
  Calculator: 122.01 MiB
    Density: 8.69 MiB
      Arrays: 3.43 MiB
      Localized functions: 3.94 MiB
      Mixer: 1.32 MiB
    Hamiltonian: 2.34 MiB
      Arrays: 2.24 MiB
      XC: 0.00 MiB
      Poisson: 0.00 MiB
      vbar: 0.10 MiB
    Wavefunctions: 110.99 MiB
      Arrays psit_nG: 73.14 MiB
      Eigensolver: 1.20 MiB
      Projections: 1.51 MiB
      Projectors: 30.81 MiB
      PW-descriptor: 4.32 MiB

Total number of cores used: 1

Number of atoms: 6
Number of atomic orbitals: 24
Number of bands in calculation: 20
Number of valence electrons: 26
Bands to converge: occupied

... initialized

Initializing position-dependent things.

Density initialized from atomic densities
Creating initial wave functions:
  20 bands from LCAO basis set

   .------.  
  /|      |  
 * | O    |  
 | O      |  
 | | Li   |  
 O |      |  
 | .--O---.  
 |/      /   
 Li-----*    

Positions:
   0 Li     1.480551    1.992835    2.448045    ( 0.0000,  0.0000,  0.0000)
   1 Li     0.000000    0.000000    0.000000    ( 0.0000,  0.0000,  0.0000)
   2 O      1.480551    2.518377    0.419218    ( 0.0000,  0.0000,  0.0000)
   3 O      1.480551    1.467292    4.476872    ( 0.0000,  0.0000,  0.0000)
   4 O      0.000000    0.525542    2.028827    ( 0.0000,  0.0000,  0.0000)
   5 O      0.000000    3.460127    2.867263    ( 0.0000,  0.0000,  0.0000)

Unit cell:
           periodic     x           y           z      points  spacing
  1. axis:    yes    2.961101    0.000000    0.000000    20     0.1481
  2. axis:    yes    0.000000    3.985669    0.000000    27     0.1476
  3. axis:    yes    0.000000    0.000000    4.896090    32     0.1530

  Lengths:   2.961101   3.985669   4.896090
  Angles:   90.000000  90.000000  90.000000

Effective grid spacing dv^(1/3) = 0.1495

     iter     time        total  log10-change:
                         energy  eigst   dens
iter:   1 22:03:11   -29.873151
iter:   2 22:03:22   -29.758036  -1.63  -1.01
iter:   3 22:03:35   -29.060149  -1.44  -1.05
iter:   4 22:03:51   -29.087743  -2.04  -1.46
iter:   5 22:04:07   -29.070929  -1.95  -1.65
iter:   6 22:04:22   -29.060158  -3.88  -2.01
iter:   7 22:04:36   -29.058949  -5.15c -2.17
iter:   8 22:04:50   -29.054955  -2.84  -2.20
iter:   9 22:05:05   -29.053768c -4.35c -2.65
iter:  10 22:05:19   -29.053848c -5.96c -2.89
iter:  11 22:05:34   -29.053497c -4.44c -2.86
iter:  12 22:05:50   -29.053505c -6.16c -3.43c

Converged after 12 iterations.

Dipole moment: (-0.000000, -0.000000, 0.000000) |e|*Ang

Energy contributions relative to reference atoms: (reference = -8568.984845)

Kinetic:        +32.104047
Potential:      -33.605574
External:        +0.000000
XC:             -28.385548
Entropy (-ST):   -0.194235
Local:           +0.930689
--------------------------
Free energy:    -29.150623
Extrapolated:   -29.053505

Showing only first 2 kpts
 Kpt  Band  Eigenvalues  Occupancy
  0    11      2.16972    0.35225
  0    12      2.39334    0.04467
  0    13      2.48261    0.01854
  0    14      8.45761    0.00000

  1    11      2.00854    1.03450
  1    12      2.40142    0.04128
  1    13      2.47849    0.01931
  1    14      8.30133    0.00000


Fermi level: 2.01544

No gap
Writing to /Users/gabrielbirnbaum/PycharmProjects/nanolithia/calculators/LiO2-mp-1018789-PBE-6x6x6-800.gpw (mode='')

Timing:                              incl.     excl.
-----------------------------------------------------------
Hamiltonian:                         0.161     0.001   0.0% |
 Atomic:                             0.112     0.002   0.0% |
  XC Correction:                     0.110     0.110   0.1% |
 Calculate atomic Hamiltonians:      0.015     0.015   0.0% |
 Communicate:                        0.000     0.000   0.0% |
 Initialize Hamiltonian:             0.000     0.000   0.0% |
 Poisson:                            0.000     0.000   0.0% |
 XC 3D grid:                         0.033     0.033   0.0% |
LCAO initialization:                 7.829     0.029   0.0% |
 LCAO eigensolver:                   0.768     0.002   0.0% |
  Calculate projections:             0.004     0.004   0.0% |
  DenseAtomicCorrection:             0.012     0.012   0.0% |
  Distribute overlap matrix:         0.001     0.001   0.0% |
  Orbital Layouts:                   0.028     0.028   0.0% |
  Potential matrix:                  0.698     0.698   0.4% |
  Sum over cells:                    0.022     0.022   0.0% |
 LCAO to grid:                       5.870     5.870   3.3% ||
 Set positions (LCAO WFS):           1.161     0.180   0.1% |
  Basic WFS set positions:           0.001     0.001   0.0% |
  Basis functions set positions:     0.000     0.000   0.0% |
  P tci:                             0.454     0.454   0.3% |
  ST tci:                            0.503     0.503   0.3% |
  mktci:                             0.024     0.024   0.0% |
PWDescriptor:                        0.030     0.030   0.0% |
SCF-cycle:                         167.760     0.478   0.3% |
 Davidson:                         149.926    12.518   7.0% |--|
  Apply H:                          32.002    31.619  17.8% |------|
   HMM T:                            0.383     0.383   0.2% |
  Subspace diag:                    34.355     0.069   0.0% |
   calc_h_matrix:                   33.245     0.786   0.4% |
    Apply H:                        32.458    32.031  18.0% |------|
     HMM T:                          0.428     0.428   0.2% |
   diagonalize:                      0.236     0.236   0.1% |
   rotate_psi:                       0.806     0.806   0.5% |
  calc. matrices:                   68.520     4.330   2.4% ||
   Apply H:                         64.191    63.317  35.6% |-------------|
    HMM T:                           0.874     0.874   0.5% |
  diagonalize:                       1.027     1.027   0.6% |
  rotate_psi:                        1.504     1.504   0.8% |
 Density:                           14.939     0.000   0.0% |
  Atomic density matrices:           0.099     0.099   0.1% |
  Mix:                               0.335     0.335   0.2% |
  Multipole moments:                 0.002     0.002   0.0% |
  Pseudo density:                   14.504    14.481   8.1% |--|
   Symmetrize density:               0.022     0.022   0.0% |
 Hamiltonian:                        2.194     0.015   0.0% |
  Atomic:                            1.488     0.037   0.0% |
   XC Correction:                    1.450     1.450   0.8% |
  Calculate atomic Hamiltonians:     0.215     0.215   0.1% |
  Communicate:                       0.000     0.000   0.0% |
  Poisson:                           0.007     0.007   0.0% |
  XC 3D grid:                        0.470     0.470   0.3% |
 Orthonormalize:                     0.223     0.005   0.0% |
  calc_s_matrix:                     0.035     0.035   0.0% |
  inverse-cholesky:                  0.006     0.006   0.0% |
  projections:                       0.151     0.151   0.1% |
  rotate_psi_s:                      0.026     0.026   0.0% |
Set symmetry:                        0.004     0.004   0.0% |
Other:                               2.184     2.184   1.2% |
-----------------------------------------------------------
Total:                                       177.968 100.0%

Date: Sat Aug  6 22:05:51 2022
