
  ___ ___ ___ _ _ _  
 |   |   |_  | | | | 
 | | | | | . | | | | 
 |__ |  _|___|_____|  22.1.0
 |___|_|             

User:   gabrielbirnbaum@Gabriels-MacBook-Pro.local
Date:   Sat Aug  6 19:10:06 2022
Arch:   x86_64
Pid:    88036
Python: 3.9.13
gpaw:   /Users/gabrielbirnbaum/PycharmProjects/nanolithia/venv/lib/python3.9/site-packages/gpaw
_gpaw:  /Users/gabrielbirnbaum/PycharmProjects/nanolithia/venv/lib/python3.9/site-packages/
        _gpaw.cpython-39-darwin.so
ase:    /Users/gabrielbirnbaum/PycharmProjects/nanolithia/venv/lib/python3.9/site-packages/ase (version 3.22.1)
numpy:  /Users/gabrielbirnbaum/PycharmProjects/nanolithia/venv/lib/python3.9/site-packages/numpy (version 1.23.0)
scipy:  /Users/gabrielbirnbaum/PycharmProjects/nanolithia/venv/lib/python3.9/site-packages/scipy (version 1.8.1)
libxc:  5.2.3
units:  Angstrom and eV
cores: 1
OpenMP: False
OMP_NUM_THREADS: 1

Input parameters:
  convergence: {density: 0.001,
                eigenstates: 0.0001,
                energy: 0.0002}
  kpts: {gamma: True,
         size: (4, 4, 4)}
  mode: {ecut: 541.0,
         name: pw}
  spinpol: False
  xc: PBE

System changes: positions, numbers, cell, pbc, initial_charges, initial_magmoms 

Initialize ...

Li-setup:
  name: Lithium
  id: 830b4218f175192f93f959cfc0aad614
  Z: 3.0
  valence: 1
  core: 2
  charge: 0.0
  file: /Users/gabrielbirnbaum/dft_learning/DIR/gpaw-setups-0.9.20000/Li.PBE.gz
  compensation charges: gauss, rc=0.33, lmax=2
  cutoffs: 1.91(filt), 2.55(core),
  valence states:
                energy  radius
    2s(1.00)    -2.874   1.058
    2p(0.00)    -1.090   1.058
    *s          24.337   1.058

  Using partial waves for Li as LCAO basis

O-setup:
  name: Oxygen
  id: 32ecd46bf208036f09c70b0ec9a88b78
  Z: 8.0
  valence: 6
  core: 2
  charge: 0.0
  file: /Users/gabrielbirnbaum/dft_learning/DIR/gpaw-setups-0.9.20000/O.PBE.gz
  compensation charges: gauss, rc=0.21, lmax=2
  cutoffs: 1.17(filt), 0.83(core),
  valence states:
                energy  radius
    2s(2.00)   -23.961   0.688
    2p(4.00)    -9.029   0.598
    *s           3.251   0.688
    *p          18.182   0.598
    *d           0.000   0.619

  Using partial waves for O as LCAO basis

Reference energy: -8568.984845

Spin-paired calculation

Convergence criteria:
 Maximum [total energy] change in last 3 cyles: 0.0002 eV / electron
 Maximum integral of absolute [dens]ity change: 0.001 electrons / valence electron
 Maximum integral of absolute [eigenst]ate change: 0.0001 eV^2 / valence electron
 Maximum number of scf [iter]ations: 333
 (Square brackets indicate name in SCF output, whereas a 'c' in
 the SCF output indicates the quantity has converged.)

Symmetries present (total): 4

  ( 1  0  0)  ( 1  0  0)  (-1  0  0)  (-1  0  0)
  ( 0  1  0)  ( 0 -1  0)  ( 0  1  0)  ( 0 -1  0)
  ( 0  0  1)  ( 0  0 -1)  ( 0  0  1)  ( 0  0 -1)

64 k-points: 4 x 4 x 4 Monkhorst-Pack grid + [1/8,1/8,1/8]
30 k-points in the irreducible part of the Brillouin zone
       k-points in crystal coordinates                weights
   0:     0.00000000    0.00000000    0.00000000          1/64
   1:     0.00000000    0.00000000    0.25000000          2/64
   2:     0.00000000    0.00000000    0.50000000          1/64
   3:     0.00000000    0.25000000   -0.25000000          2/64
   4:     0.00000000    0.25000000    0.00000000          2/64
   5:     0.00000000    0.25000000    0.25000000          2/64
   6:     0.00000000    0.25000000    0.50000000          2/64
   7:     0.00000000    0.50000000    0.00000000          1/64
   8:     0.00000000    0.50000000    0.25000000          2/64
   9:     0.00000000    0.50000000    0.50000000          1/64
          ...
  29:     0.50000000    0.50000000    0.50000000          1/64

Wave functions: Plane wave expansion
  Cutoff energy: 541.000 eV
  Number of coefficients (min, max): 1632, 1683
  Pulay-stress correction: 0.000000 eV/Ang^3 (de/decut=0.000000)
  Using Numpy's FFT
  ScaLapack parameters: grid=1x1, blocksize=None
  Wavefunction extrapolation:
    Improved wavefunction reuse through dual PAW basis 

Occupation numbers: Fermi-Dirac: width=0.1000 eV
 

Eigensolver
   Davidson(niter=2) 

Densities:
  Coarse grid: 16*24*27 grid
  Fine grid: 32*48*54 grid
  Total Charge: 0.000000 

Density mixing:
  Method: separate
  Backend: pulay
  Linear mixing parameter: 0.05
  Mixing with 5 old densities
  Damping of long wave oscillations: 50 

Hamiltonian:
  XC and Coulomb potentials evaluated on a 32*48*54 grid
  Using the PBE Exchange-Correlation functional
  External potential:
    NoExternalPotential
 

XC parameters: PBE with 2 nearest neighbor stencil

Memory estimate:
  Process memory now: 135.63 MiB
  Calculator: 30.71 MiB
    Density: 5.04 MiB
      Arrays: 2.06 MiB
      Localized functions: 2.19 MiB
      Mixer: 0.79 MiB
    Hamiltonian: 1.40 MiB
      Arrays: 1.34 MiB
      XC: 0.00 MiB
      Poisson: 0.00 MiB
      vbar: 0.05 MiB
    Wavefunctions: 24.27 MiB
      Arrays psit_nG: 15.41 MiB
      Eigensolver: 0.70 MiB
      Projections: 0.57 MiB
      Projectors: 6.42 MiB
      PW-descriptor: 1.17 MiB

Total number of cores used: 1

Number of atoms: 6
Number of atomic orbitals: 24
Number of bands in calculation: 20
Number of valence electrons: 26
Bands to converge: occupied

... initialized

Initializing position-dependent things.

Density initialized from atomic densities
Creating initial wave functions:
  20 bands from LCAO basis set

   .------.  
  /|      |  
 * | O    |  
 | O      |  
 | | Li   |  
 O |      |  
 | .--O---.  
 |/      /   
 Li-----*    

Positions:
   0 Li     1.480551    1.992835    2.448045    ( 0.0000,  0.0000,  0.0000)
   1 Li     0.000000    0.000000    0.000000    ( 0.0000,  0.0000,  0.0000)
   2 O      1.480551    2.518377    0.419218    ( 0.0000,  0.0000,  0.0000)
   3 O      1.480551    1.467292    4.476872    ( 0.0000,  0.0000,  0.0000)
   4 O      0.000000    0.525542    2.028827    ( 0.0000,  0.0000,  0.0000)
   5 O      0.000000    3.460127    2.867263    ( 0.0000,  0.0000,  0.0000)

Unit cell:
           periodic     x           y           z      points  spacing
  1. axis:    yes    2.961101    0.000000    0.000000    16     0.1851
  2. axis:    yes    0.000000    3.985669    0.000000    24     0.1661
  3. axis:    yes    0.000000    0.000000    4.896090    27     0.1813

  Lengths:   2.961101   3.985669   4.896090
  Angles:   90.000000  90.000000  90.000000

Effective grid spacing dv^(1/3) = 0.1773

     iter     time        total  log10-change:
                         energy  eigst   dens
iter:   1 19:10:11   -29.862312
iter:   2 19:10:14   -29.756578  -1.72  -1.02
iter:   3 19:10:16   -29.098931  -1.53  -1.05
iter:   4 19:10:19   -29.135790  -2.05  -1.48
iter:   5 19:10:22   -29.088042  -2.46  -1.70
iter:   6 19:10:24   -29.088803  -3.66  -2.31
iter:   7 19:10:27   -29.093791  -2.92  -2.36
iter:   8 19:10:30   -29.088617c -4.02c -2.32
iter:   9 19:10:32   -29.087921  -4.71c -2.65
iter:  10 19:10:35   -29.087653c -4.54c -2.73
iter:  11 19:10:38   -29.087487c -4.94c -3.23c

Converged after 11 iterations.

Dipole moment: (0.000000, -0.000000, 0.000000) |e|*Ang

Energy contributions relative to reference atoms: (reference = -8568.984845)

Kinetic:        +25.504993
Potential:      -25.894369
External:        +0.000000
XC:             -28.985886
Entropy (-ST):   -0.163137
Local:           +0.369344
--------------------------
Free energy:    -29.169055
Extrapolated:   -29.087487

Showing only first 2 kpts
 Kpt  Band  Eigenvalues  Occupancy
  0    11      2.14060    0.29310
  0    12      2.39825    0.02578
  0    13      2.48432    0.01098
  0    14      8.41550    0.00000

  1    11      1.80309    1.66771
  1    12      2.42003    0.02079
  1    13      2.48343    0.01108
  1    14      8.11266    0.00000


Fermi level: 1.96441

No gap
Writing to /Users/gabrielbirnbaum/PycharmProjects/nanolithia/calculators/LiO2-mp-1018789-PBE-4x4x4-541.gpw (mode='')

Timing:                              incl.     excl.
-----------------------------------------------------------
Hamiltonian:                         0.149     0.001   0.0% |
 Atomic:                             0.107     0.001   0.0% |
  XC Correction:                     0.107     0.107   0.3% |
 Calculate atomic Hamiltonians:      0.020     0.020   0.1% |
 Communicate:                        0.000     0.000   0.0% |
 Initialize Hamiltonian:             0.000     0.000   0.0% |
 Poisson:                            0.000     0.000   0.0% |
 XC 3D grid:                         0.020     0.020   0.1% |
LCAO initialization:                 2.293     0.054   0.2% |
 LCAO eigensolver:                   0.405     0.001   0.0% |
  Calculate projections:             0.002     0.002   0.0% |
  DenseAtomicCorrection:             0.005     0.005   0.0% |
  Distribute overlap matrix:         0.001     0.001   0.0% |
  Orbital Layouts:                   0.011     0.011   0.0% |
  Potential matrix:                  0.376     0.376   1.2% |
  Sum over cells:                    0.010     0.010   0.0% |
 LCAO to grid:                       1.342     1.342   4.1% |-|
 Set positions (LCAO WFS):           0.491     0.075   0.2% |
  Basic WFS set positions:           0.000     0.000   0.0% |
  Basis functions set positions:     0.000     0.000   0.0% |
  P tci:                             0.180     0.180   0.6% |
  ST tci:                            0.213     0.213   0.7% |
  mktci:                             0.023     0.023   0.1% |
PWDescriptor:                        0.010     0.010   0.0% |
SCF-cycle:                          28.936     0.098   0.3% |
 Davidson:                          24.832     1.872   5.8% |-|
  Apply H:                           5.298     5.229  16.1% |-----|
   HMM T:                            0.069     0.069   0.2% |
  Subspace diag:                     5.735     0.018   0.1% |
   calc_h_matrix:                    5.540     0.125   0.4% |
    Apply H:                         5.416     5.344  16.5% |------|
     HMM T:                          0.072     0.072   0.2% |
   diagonalize:                      0.060     0.060   0.2% |
   rotate_psi:                       0.117     0.117   0.4% |
  calc. matrices:                   11.433     0.722   2.2% ||
   Apply H:                         10.711    10.577  32.6% |------------|
    HMM T:                           0.135     0.135   0.4% |
  diagonalize:                       0.269     0.269   0.8% |
  rotate_psi:                        0.224     0.224   0.7% |
 Density:                            2.467     0.000   0.0% |
  Atomic density matrices:           0.028     0.028   0.1% |
  Mix:                               0.170     0.170   0.5% |
  Multipole moments:                 0.001     0.001   0.0% |
  Pseudo density:                    2.268     2.258   7.0% |--|
   Symmetrize density:               0.009     0.009   0.0% |
 Hamiltonian:                        1.491     0.008   0.0% |
  Atomic:                            1.183     0.007   0.0% |
   XC Correction:                    1.176     1.176   3.6% ||
  Calculate atomic Hamiltonians:     0.091     0.091   0.3% |
  Communicate:                       0.000     0.000   0.0% |
  Poisson:                           0.003     0.003   0.0% |
  XC 3D grid:                        0.205     0.205   0.6% |
 Orthonormalize:                     0.049     0.002   0.0% |
  calc_s_matrix:                     0.010     0.010   0.0% |
  inverse-cholesky:                  0.002     0.002   0.0% |
  projections:                       0.030     0.030   0.1% |
  rotate_psi_s:                      0.005     0.005   0.0% |
Set symmetry:                        0.002     0.002   0.0% |
Other:                               1.042     1.042   3.2% ||
-----------------------------------------------------------
Total:                                        32.433 100.0%

Date: Sat Aug  6 19:10:38 2022
