
  ___ ___ ___ _ _ _  
 |   |   |_  | | | | 
 | | | | | . | | | | 
 |__ |  _|___|_____|  22.1.0
 |___|_|             

User:   gabrielbirnbaum@Gabriels-MacBook-Pro.local
Date:   Sat Aug  6 18:34:15 2022
Arch:   x86_64
Pid:    82329
Python: 3.9.13
gpaw:   /Users/gabrielbirnbaum/PycharmProjects/nanolithia/venv/lib/python3.9/site-packages/gpaw
_gpaw:  /Users/gabrielbirnbaum/PycharmProjects/nanolithia/venv/lib/python3.9/site-packages/
        _gpaw.cpython-39-darwin.so
ase:    /Users/gabrielbirnbaum/PycharmProjects/nanolithia/venv/lib/python3.9/site-packages/ase (version 3.22.1)
numpy:  /Users/gabrielbirnbaum/PycharmProjects/nanolithia/venv/lib/python3.9/site-packages/numpy (version 1.23.0)
scipy:  /Users/gabrielbirnbaum/PycharmProjects/nanolithia/venv/lib/python3.9/site-packages/scipy (version 1.8.1)
libxc:  5.2.3
units:  Angstrom and eV
cores: 1
OpenMP: False
OMP_NUM_THREADS: 1

Input parameters:
  convergence: {density: 0.001,
                eigenstates: 0.0001,
                energy: 0.0002}
  kpts: {gamma: True,
         size: (4, 4, 4)}
  mode: {ecut: 550.0,
         name: pw}
  spinpol: False
  xc: PBE

Input parameters:
  setups: {O: :p,0.33,0}

System changes: positions, numbers, cell, pbc, initial_charges, initial_magmoms 

Initialize ...

Li-setup:
  name: Lithium
  id: 830b4218f175192f93f959cfc0aad614
  Z: 3.0
  valence: 1
  core: 2
  charge: 0.0
  file: /Users/gabrielbirnbaum/dft_learning/DIR/gpaw-setups-0.9.20000/Li.PBE.gz
  compensation charges: gauss, rc=0.33, lmax=2
  cutoffs: 1.91(filt), 2.55(core),
  valence states:
                energy  radius
    2s(1.00)    -2.874   1.058
    2p(0.00)    -1.090   1.058
    *s          24.337   1.058

  Using partial waves for Li as LCAO basis

O-setup:
  name: Oxygen
  id: 32ecd46bf208036f09c70b0ec9a88b78
  Z: 8.0
  valence: 6
  core: 2
  charge: 0.0
  Hubbard U: 0.330000 eV (l=1, scale=False)
  file: /Users/gabrielbirnbaum/dft_learning/DIR/gpaw-setups-0.9.20000/O.PBE.gz
  compensation charges: gauss, rc=0.21, lmax=2
  cutoffs: 1.17(filt), 0.83(core),
  valence states:
                energy  radius
    2s(2.00)   -23.961   0.688
    2p(4.00)    -9.029   0.598
    *s           3.251   0.688
    *p          18.182   0.598
    *d           0.000   0.619

  Using partial waves for O as LCAO basis

Reference energy: -8568.984845

Spin-paired calculation

Convergence criteria:
 Maximum [total energy] change in last 3 cyles: 0.0002 eV / electron
 Maximum integral of absolute [dens]ity change: 0.001 electrons / valence electron
 Maximum integral of absolute [eigenst]ate change: 0.0001 eV^2 / valence electron
 Maximum number of scf [iter]ations: 333
 (Square brackets indicate name in SCF output, whereas a 'c' in
 the SCF output indicates the quantity has converged.)

Symmetries present (total): 4

  ( 1  0  0)  ( 1  0  0)  (-1  0  0)  (-1  0  0)
  ( 0  1  0)  ( 0 -1  0)  ( 0  1  0)  ( 0 -1  0)
  ( 0  0  1)  ( 0  0 -1)  ( 0  0  1)  ( 0  0 -1)

64 k-points: 4 x 4 x 4 Monkhorst-Pack grid + [1/8,1/8,1/8]
30 k-points in the irreducible part of the Brillouin zone
       k-points in crystal coordinates                weights
   0:     0.00000000    0.00000000    0.00000000          1/64
   1:     0.00000000    0.00000000    0.25000000          2/64
   2:     0.00000000    0.00000000    0.50000000          1/64
   3:     0.00000000    0.25000000   -0.25000000          2/64
   4:     0.00000000    0.25000000    0.00000000          2/64
   5:     0.00000000    0.25000000    0.25000000          2/64
   6:     0.00000000    0.25000000    0.50000000          2/64
   7:     0.00000000    0.50000000    0.00000000          1/64
   8:     0.00000000    0.50000000    0.25000000          2/64
   9:     0.00000000    0.50000000    0.50000000          1/64
          ...
  29:     0.50000000    0.50000000    0.50000000          1/64

Wave functions: Plane wave expansion
  Cutoff energy: 550.000 eV
  Number of coefficients (min, max): 1670, 1710
  Pulay-stress correction: 0.000000 eV/Ang^3 (de/decut=0.000000)
  Using Numpy's FFT
  ScaLapack parameters: grid=1x1, blocksize=None
  Wavefunction extrapolation:
    Improved wavefunction reuse through dual PAW basis 

Occupation numbers: Fermi-Dirac: width=0.1000 eV
 

Eigensolver
   Davidson(niter=2) 

Densities:
  Coarse grid: 18*24*27 grid
  Fine grid: 36*48*54 grid
  Total Charge: 0.000000 

Density mixing:
  Method: separate
  Backend: pulay
  Linear mixing parameter: 0.05
  Mixing with 5 old densities
  Damping of long wave oscillations: 50 

Hamiltonian:
  XC and Coulomb potentials evaluated on a 36*48*54 grid
  Using the PBE Exchange-Correlation functional
  External potential:
    NoExternalPotential
 

XC parameters: PBE with 2 nearest neighbor stencil

Memory estimate:
  Process memory now: 141.08 MiB
  Calculator: 31.77 MiB
    Density: 5.45 MiB
      Arrays: 2.31 MiB
      Localized functions: 2.24 MiB
      Mixer: 0.89 MiB
    Hamiltonian: 1.57 MiB
      Arrays: 1.51 MiB
      XC: 0.00 MiB
      Poisson: 0.00 MiB
      vbar: 0.05 MiB
    Wavefunctions: 24.75 MiB
      Arrays psit_nG: 15.66 MiB
      Eigensolver: 0.71 MiB
      Projections: 0.57 MiB
      Projectors: 6.59 MiB
      PW-descriptor: 1.23 MiB

Total number of cores used: 1

Number of atoms: 6
Number of atomic orbitals: 24
Number of bands in calculation: 20
Number of valence electrons: 26
Bands to converge: occupied

... initialized

Initializing position-dependent things.

Density initialized from atomic densities
Creating initial wave functions:
  20 bands from LCAO basis set

   .------.  
  /|      |  
 * | O    |  
 | O      |  
 | | Li   |  
 O |      |  
 | .--O---.  
 |/      /   
 Li-----*    

Positions:
   0 Li     1.480551    1.992835    2.448045    ( 0.0000,  0.0000,  0.0000)
   1 Li     0.000000    0.000000    0.000000    ( 0.0000,  0.0000,  0.0000)
   2 O      1.480551    2.518377    0.419218    ( 0.0000,  0.0000,  0.0000)
   3 O      1.480551    1.467292    4.476872    ( 0.0000,  0.0000,  0.0000)
   4 O      0.000000    0.525542    2.028827    ( 0.0000,  0.0000,  0.0000)
   5 O      0.000000    3.460127    2.867263    ( 0.0000,  0.0000,  0.0000)

Unit cell:
           periodic     x           y           z      points  spacing
  1. axis:    yes    2.961101    0.000000    0.000000    18     0.1645
  2. axis:    yes    0.000000    3.985669    0.000000    24     0.1661
  3. axis:    yes    0.000000    0.000000    4.896090    27     0.1813

  Lengths:   2.961101   3.985669   4.896090
  Angles:   90.000000  90.000000  90.000000

Effective grid spacing dv^(1/3) = 0.1705

     iter     time        total  log10-change:
                         energy  eigst   dens
iter:   1 18:34:21   -29.049776
iter:   2 18:34:24   -28.946933  -1.72  -1.02
iter:   3 18:34:28   -28.305029  -1.53  -1.05
iter:   4 18:34:31   -28.343829  -2.06  -1.48
iter:   5 18:34:34   -28.298114  -2.44  -1.70
iter:   6 18:34:38   -28.298904  -3.73  -2.33
iter:   7 18:34:41   -28.304165  -2.90  -2.37
iter:   8 18:34:44   -28.298880  -4.01c -2.31
iter:   9 18:34:48   -28.297412  -3.86  -2.64
iter:  10 18:34:51   -28.297694c -5.22c -2.99
iter:  11 18:34:54   -28.297636c -5.96c -3.54c

Converged after 11 iterations.

Dipole moment: (0.000000, 0.000000, 0.000000) |e|*Ang

Energy contributions relative to reference atoms: (reference = -8568.984845)

Kinetic:        +25.965720
Potential:      -26.529959
External:        +0.000000
XC:             -28.066987
Entropy (-ST):   -0.163039
Local:           +0.415110
--------------------------
Free energy:    -28.379155
Extrapolated:   -28.297636

Showing only first 2 kpts
 Kpt  Band  Eigenvalues  Occupancy
  0    11      2.14722    0.29255
  0    12      2.41018    0.02441
  0    13      2.49921    0.01009
  0    14      8.43965    0.00000

  1    11      1.80956    1.66752
  1    12      2.43091    0.01988
  1    13      2.49393    0.01064
  1    14      8.13127    0.00000


Fermi level: 1.97081

No gap
Writing to /Users/gabrielbirnbaum/PycharmProjects/nanolithia/calculators/LiO2-mp-1018789-PBE-4x4x4-550.gpw (mode='')

Timing:                              incl.     excl.
-----------------------------------------------------------
Hamiltonian:                         0.150     0.001   0.0% |
 Atomic:                             0.111     0.003   0.0% |
  XC Correction:                     0.109     0.109   0.3% |
 Calculate atomic Hamiltonians:      0.014     0.014   0.0% |
 Communicate:                        0.000     0.000   0.0% |
 Initialize Hamiltonian:             0.000     0.000   0.0% |
 Poisson:                            0.000     0.000   0.0% |
 XC 3D grid:                         0.024     0.024   0.1% |
LCAO initialization:                 2.587     0.069   0.2% |
 LCAO eigensolver:                   0.476     0.001   0.0% |
  Calculate projections:             0.001     0.001   0.0% |
  DenseAtomicCorrection:             0.004     0.004   0.0% |
  Distribute overlap matrix:         0.000     0.000   0.0% |
  Orbital Layouts:                   0.010     0.010   0.0% |
  Potential matrix:                  0.451     0.451   1.1% |
  Sum over cells:                    0.008     0.008   0.0% |
 LCAO to grid:                       1.552     1.552   3.9% |-|
 Set positions (LCAO WFS):           0.490     0.072   0.2% |
  Basic WFS set positions:           0.000     0.000   0.0% |
  Basis functions set positions:     0.000     0.000   0.0% |
  P tci:                             0.183     0.183   0.5% |
  ST tci:                            0.212     0.212   0.5% |
  mktci:                             0.023     0.023   0.1% |
PWDescriptor:                        0.010     0.010   0.0% |
SCF-cycle:                          35.974     0.098   0.2% |
 Davidson:                          31.181     2.007   5.0% |-|
  Apply H:                           6.703     6.632  16.7% |------|
   HMM T:                            0.071     0.071   0.2% |
  Subspace diag:                     7.295     0.018   0.0% |
   calc_h_matrix:                    7.085     0.131   0.3% |
    Apply H:                         6.954     6.881  17.3% |------|
     HMM T:                          0.073     0.073   0.2% |
   diagonalize:                      0.064     0.064   0.2% |
   rotate_psi:                       0.128     0.128   0.3% |
  calc. matrices:                   14.640     0.804   2.0% ||
   Apply H:                         13.836    13.695  34.4% |-------------|
    HMM T:                           0.141     0.141   0.4% |
  diagonalize:                       0.291     0.291   0.7% |
  rotate_psi:                        0.244     0.244   0.6% |
 Density:                            3.081     0.000   0.0% |
  Atomic density matrices:           0.027     0.027   0.1% |
  Mix:                               0.177     0.177   0.4% |
  Multipole moments:                 0.001     0.001   0.0% |
  Pseudo density:                    2.875     2.864   7.2% |--|
   Symmetrize density:               0.011     0.011   0.0% |
 Hamiltonian:                        1.562     0.009   0.0% |
  Atomic:                            1.216     0.026   0.1% |
   XC Correction:                    1.190     1.190   3.0% ||
  Calculate atomic Hamiltonians:     0.096     0.096   0.2% |
  Communicate:                       0.000     0.000   0.0% |
  Poisson:                           0.003     0.003   0.0% |
  XC 3D grid:                        0.237     0.237   0.6% |
 Orthonormalize:                     0.052     0.002   0.0% |
  calc_s_matrix:                     0.012     0.012   0.0% |
  inverse-cholesky:                  0.002     0.002   0.0% |
  projections:                       0.031     0.031   0.1% |
  rotate_psi_s:                      0.005     0.005   0.0% |
Set symmetry:                        0.002     0.002   0.0% |
Other:                               1.041     1.041   2.6% ||
-----------------------------------------------------------
Total:                                        39.764 100.0%

Date: Sat Aug  6 18:34:55 2022
