
  ___ ___ ___ _ _ _  
 |   |   |_  | | | | 
 | | | | | . | | | | 
 |__ |  _|___|_____|  22.1.0
 |___|_|             

User:   gabrielbirnbaum@Gabriels-MacBook-Pro.local
Date:   Tue Jul 26 00:16:00 2022
Arch:   x86_64
Pid:    92584
Python: 3.9.13
gpaw:   /Users/gabrielbirnbaum/PycharmProjects/nanolithia/venv/lib/python3.9/site-packages/gpaw
_gpaw:  /Users/gabrielbirnbaum/PycharmProjects/nanolithia/venv/lib/python3.9/site-packages/
        _gpaw.cpython-39-darwin.so
ase:    /Users/gabrielbirnbaum/PycharmProjects/nanolithia/venv/lib/python3.9/site-packages/ase (version 3.22.1)
numpy:  /Users/gabrielbirnbaum/PycharmProjects/nanolithia/venv/lib/python3.9/site-packages/numpy (version 1.23.0)
scipy:  /Users/gabrielbirnbaum/PycharmProjects/nanolithia/venv/lib/python3.9/site-packages/scipy (version 1.8.1)
libxc:  5.2.3
units:  Angstrom and eV
cores: 1
OpenMP: False
OMP_NUM_THREADS: 1

Input parameters:
  convergence: {density: 0.001,
                eigenstates: 0.0001,
                energy: 0.0002}
  kpts: {gamma: True,
         size: (8, 8, 8)}
  mode: {ecut: 900.0000000000001,
         name: pw}
  setups: {O: :p,0.33,0}
  spinpol: True

System changes: positions, numbers, cell, pbc, initial_charges, initial_magmoms 

Initialize ...

Li-setup:
  name: Lithium
  id: b73562207f97a71b6967473b66fe8b65
  Z: 3.0
  valence: 1
  core: 2
  charge: 0.0
  file: /Users/gabrielbirnbaum/dft_learning/DIR/gpaw-setups-0.9.20000/Li.LDA.gz
  compensation charges: gauss, rc=0.33, lmax=2
  cutoffs: 1.91(filt), 2.55(core),
  valence states:
                energy  radius
    2s(1.00)    -2.874   1.058
    2p(0.00)    -1.126   1.058
    *s          24.338   1.058

  Using partial waves for Li as LCAO basis

O-setup:
  name: Oxygen
  id: 9b9d51c344dea68c822856295a461509
  Z: 8.0
  valence: 6
  core: 2
  charge: 0.0
  Hubbard U: 0.330000 eV (l=1, scale=False)
  file: /Users/gabrielbirnbaum/dft_learning/DIR/gpaw-setups-0.9.20000/O.LDA.gz
  compensation charges: gauss, rc=0.21, lmax=2
  cutoffs: 1.17(filt), 0.83(core),
  valence states:
                energy  radius
    2s(2.00)   -23.752   0.688
    2p(4.00)    -9.195   0.598
    *s           3.459   0.688
    *p          18.016   0.598
    *d           0.000   0.619

  Using partial waves for O as LCAO basis

Reference energy: -8510.849865

Spin-polarized calculation.
Magnetic moment: 0.000000

Convergence criteria:
 Maximum [total energy] change in last 3 cyles: 0.0002 eV / electron
 Maximum integral of absolute [dens]ity change: 0.001 electrons / valence electron
 Maximum integral of absolute [eigenst]ate change: 0.0001 eV^2 / valence electron
 Maximum number of scf [iter]ations: 333
 (Square brackets indicate name in SCF output, whereas a 'c' in
 the SCF output indicates the quantity has converged.)

Symmetries present (total): 4

  ( 1  0  0)  ( 1  0  0)  (-1  0  0)  (-1  0  0)
  ( 0  1  0)  ( 0 -1  0)  ( 0  1  0)  ( 0 -1  0)
  ( 0  0  1)  ( 0  0 -1)  ( 0  0  1)  ( 0  0 -1)

512 k-points: 8 x 8 x 8 Monkhorst-Pack grid + [1/16,1/16,1/16]
170 k-points in the irreducible part of the Brillouin zone
       k-points in crystal coordinates                weights
   0:     0.00000000    0.00000000    0.00000000          1/512
   1:     0.00000000    0.00000000    0.12500000          2/512
   2:     0.00000000    0.00000000    0.25000000          2/512
   3:     0.00000000    0.00000000    0.37500000          2/512
   4:     0.00000000    0.00000000    0.50000000          1/512
   5:     0.00000000    0.12500000   -0.37500000          2/512
   6:     0.00000000    0.12500000   -0.25000000          2/512
   7:     0.00000000    0.12500000   -0.12500000          2/512
   8:     0.00000000    0.12500000    0.00000000          2/512
   9:     0.00000000    0.12500000    0.12500000          2/512
          ...
 169:     0.50000000    0.50000000    0.50000000          1/512

Wave functions: Plane wave expansion
  Cutoff energy: 900.000 eV
  Number of coefficients (min, max): 3515, 3580
  Pulay-stress correction: 0.000000 eV/Ang^3 (de/decut=0.000000)
  Using Numpy's FFT
  ScaLapack parameters: grid=1x1, blocksize=None
  Wavefunction extrapolation:
    Improved wavefunction reuse through dual PAW basis 

Occupation numbers: Fermi-Dirac: width=0.1000 eV
 

Eigensolver
   Davidson(niter=2) 

Densities:
  Coarse grid: 21*28*35 grid
  Fine grid: 42*56*70 grid
  Total Charge: 0.000000 

Density mixing:
  Method: difference
  Backend: pulay
  Linear mixing parameter: 0.05
  Mixing with 5 old densities
  Damping of long wave oscillations: 50 

Hamiltonian:
  XC and Coulomb potentials evaluated on a 42*56*70 grid
  Using the LDA Exchange-Correlation functional
  External potential:
    NoExternalPotential
 

Memory estimate:
  Process memory now: 1250.76 MiB
  Calculator: 484.10 MiB
    Density: 12.40 MiB
      Arrays: 5.50 MiB
      Localized functions: 4.71 MiB
      Mixer: 2.20 MiB
    Hamiltonian: 4.20 MiB
      Arrays: 4.08 MiB
      XC: 0.00 MiB
      Poisson: 0.00 MiB
      vbar: 0.11 MiB
    Wavefunctions: 467.51 MiB
      Arrays psit_nG: 371.46 MiB
      Eigensolver: 1.43 MiB
      Projections: 6.43 MiB
      Projectors: 78.11 MiB
      PW-descriptor: 10.07 MiB

Total number of cores used: 1

Number of atoms: 6
Number of atomic orbitals: 24
Number of bands in calculation: 20
Number of valence electrons: 26
Bands to converge: occupied

... initialized

Initializing position-dependent things.

Density initialized from atomic densities
Creating initial wave functions:
  20 bands from LCAO basis set

   .------.  
  /|      |  
 * | O    |  
 | O      |  
 | | Li   |  
 O |      |  
 | .--O---.  
 |/      /   
 Li-----*    

Positions:
   0 Li     1.480551    1.992835    2.448045    ( 0.0000,  0.0000,  0.0000)
   1 Li     0.000000    0.000000    0.000000    ( 0.0000,  0.0000,  0.0000)
   2 O      1.480551    2.518377    0.419218    ( 0.0000,  0.0000,  0.0000)
   3 O      1.480551    1.467292    4.476872    ( 0.0000,  0.0000,  0.0000)
   4 O      0.000000    0.525542    2.028827    ( 0.0000,  0.0000,  0.0000)
   5 O      0.000000    3.460127    2.867263    ( 0.0000,  0.0000,  0.0000)

Unit cell:
           periodic     x           y           z      points  spacing
  1. axis:    yes    2.961101    0.000000    0.000000    21     0.1410
  2. axis:    yes    0.000000    3.985669    0.000000    28     0.1423
  3. axis:    yes    0.000000    0.000000    4.896090    35     0.1399

  Lengths:   2.961101   3.985669   4.896090
  Angles:   90.000000  90.000000  90.000000

Effective grid spacing dv^(1/3) = 0.1411

     iter     time        total  log10-change:  magmom
                         energy  eigst   dens
iter:   1 00:21:54   -33.171339                  +0.0000
iter:   2 00:22:44   -33.057129  -1.57  -1.03    +0.0000
iter:   3 00:23:37   -32.313134  -1.48  -1.07    +0.0000
iter:   4 00:24:29   -32.304177  -2.04  -1.48    +0.0000
iter:   5 00:25:22   -32.283435  -1.99  -1.70    +0.0000
iter:   6 00:26:15   -32.267638  -3.62  -1.98    +0.0000
iter:   7 00:27:08   -32.265000  -4.27c -2.23    +0.0000
iter:   8 00:28:01   -32.263683c -2.81  -2.33    +0.0000
iter:   9 00:28:53   -32.262412c -4.85c -2.52    +0.0000
iter:  10 00:29:46   -32.262982c -5.10c -2.65    +0.0000
iter:  11 00:30:39   -32.261258c -3.60  -2.57    +0.0000
iter:  12 00:31:34   -32.261280c -5.69c -3.61c   +0.0000

Converged after 12 iterations.

Dipole moment: (-0.000000, 0.000000, 0.000000) |e|*Ang

Total magnetic moment: (0.000000, 0.000000, 0.000000)
Local magnetic moments:
   0 Li ( 0.000000,  0.000000,  0.000000)
   1 Li ( 0.000000,  0.000000,  0.000000)
   2 O  ( 0.000000,  0.000000,  0.000000)
   3 O  ( 0.000000,  0.000000,  0.000000)
   4 O  ( 0.000000,  0.000000,  0.000000)
   5 O  ( 0.000000,  0.000000,  0.000000)

Energy contributions relative to reference atoms: (reference = -8510.849865)

Kinetic:        +29.120385
Potential:      -31.376720
External:        +0.000000
XC:             -30.816404
Entropy (-ST):   -0.171772
Local:           +0.897345
--------------------------
Free energy:    -32.347166
Extrapolated:   -32.261280

Spin contamination: 0.000000 electrons
Showing only first 2 kpts
                      Up                     Down
 Kpt  Band  Eigenvalues  Occupancy  Eigenvalues  Occupancy
  0    11      1.83366    0.15045      1.83366    0.15045
  0    12      2.03941    0.02213      2.03941    0.02213
  0    13      2.13138    0.00894      2.13138    0.00894
  0    14      7.90445    0.00000      7.90445    0.00000

  1    11      1.73555    0.32083      1.73555    0.32083
  1    12      2.04415    0.02112      2.04415    0.02112
  1    13      2.12899    0.00915      2.12899    0.00915
  1    14      7.80479    0.00000      7.80479    0.00000


Fermi level: 1.66055

No gap
Timing:                              incl.     excl.
-----------------------------------------------------------
Hamiltonian:                         0.090     0.002   0.0% |
 Atomic:                             0.048     0.003   0.0% |
  XC Correction:                     0.046     0.046   0.0% |
 Calculate atomic Hamiltonians:      0.009     0.009   0.0% |
 Communicate:                        0.000     0.000   0.0% |
 Initialize Hamiltonian:             0.000     0.000   0.0% |
 Poisson:                            0.000     0.000   0.0% |
 XC 3D grid:                         0.030     0.030   0.0% |
LCAO initialization:               305.062     0.031   0.0% |
 LCAO eigensolver:                 273.995     0.015   0.0% |
  Calculate projections:             0.025     0.025   0.0% |
  DenseAtomicCorrection:             0.057     0.057   0.0% |
  Distribute overlap matrix:         0.008     0.008   0.0% |
  Orbital Layouts:                   0.126     0.126   0.0% |
  Potential matrix:                273.579   273.579  29.3% |-----------|
  Sum over cells:                    0.186     0.186   0.0% |
 LCAO to grid:                      29.031    29.031   3.1% ||
 Set positions (LCAO WFS):           2.005     0.294   0.0% |
  Basic WFS set positions:           0.000     0.000   0.0% |
  Basis functions set positions:     0.000     0.000   0.0% |
  P tci:                             0.757     0.757   0.1% |
  ST tci:                            0.931     0.931   0.1% |
  mktci:                             0.022     0.022   0.0% |
PWDescriptor:                        0.131     0.131   0.0% |
SCF-cycle:                         627.280     1.581   0.2% |
 Davidson:                         571.152    43.083   4.6% |-|
  Apply H:                         128.001   125.013  13.4% |----|
   HMM T:                            2.988     2.988   0.3% |
  Subspace diag:                   129.685     0.234   0.0% |
   calc_h_matrix:                  125.495     2.443   0.3% |
    Apply H:                       123.052   121.704  13.0% |----|
     HMM T:                          1.348     1.348   0.1% |
   diagonalize:                      0.777     0.777   0.1% |
   rotate_psi:                       3.179     3.179   0.3% |
  calc. matrices:                  261.019    15.939   1.7% ||
   Apply H:                        245.080   242.512  25.9% |---------|
    HMM T:                           2.568     2.568   0.3% |
  diagonalize:                       3.478     3.478   0.4% |
  rotate_psi:                        5.886     5.886   0.6% |
 Density:                           52.296     0.000   0.0% |
  Atomic density matrices:           0.260     0.260   0.0% |
  Mix:                               0.334     0.334   0.0% |
  Multipole moments:                 0.001     0.001   0.0% |
  Pseudo density:                   51.699    51.663   5.5% |-|
   Symmetrize density:               0.037     0.037   0.0% |
 Hamiltonian:                        1.238     0.021   0.0% |
  Atomic:                            0.623     0.045   0.0% |
   XC Correction:                    0.578     0.578   0.1% |
  Calculate atomic Hamiltonians:     0.152     0.152   0.0% |
  Communicate:                       0.000     0.000   0.0% |
  Poisson:                           0.006     0.006   0.0% |
  XC 3D grid:                        0.436     0.436   0.0% |
 Orthonormalize:                     1.013     0.022   0.0% |
  calc_s_matrix:                     0.250     0.250   0.0% |
  inverse-cholesky:                  0.023     0.023   0.0% |
  projections:                       0.586     0.586   0.1% |
  rotate_psi_s:                      0.132     0.132   0.0% |
Set symmetry:                        0.009     0.009   0.0% |
Other:                               2.002     2.002   0.2% |
-----------------------------------------------------------
Total:                                       934.573 100.0%

Memory usage: 1.34 GiB
Date: Tue Jul 26 00:31:35 2022
