
  ___ ___ ___ _ _ _  
 |   |   |_  | | | | 
 | | | | | . | | | | 
 |__ |  _|___|_____|  22.1.0
 |___|_|             

User:   gabrielbirnbaum@Gabriels-MacBook-Pro.local
Date:   Mon Jul 25 15:22:52 2022
Arch:   x86_64
Pid:    92584
Python: 3.9.13
gpaw:   /Users/gabrielbirnbaum/PycharmProjects/nanolithia/venv/lib/python3.9/site-packages/gpaw
_gpaw:  /Users/gabrielbirnbaum/PycharmProjects/nanolithia/venv/lib/python3.9/site-packages/
        _gpaw.cpython-39-darwin.so
ase:    /Users/gabrielbirnbaum/PycharmProjects/nanolithia/venv/lib/python3.9/site-packages/ase (version 3.22.1)
numpy:  /Users/gabrielbirnbaum/PycharmProjects/nanolithia/venv/lib/python3.9/site-packages/numpy (version 1.23.0)
scipy:  /Users/gabrielbirnbaum/PycharmProjects/nanolithia/venv/lib/python3.9/site-packages/scipy (version 1.8.1)
libxc:  5.2.3
units:  Angstrom and eV
cores: 1
OpenMP: False
OMP_NUM_THREADS: 1

Input parameters:
  convergence: {density: 0.001,
                eigenstates: 0.0001,
                energy: 0.0002}
  kpts: {gamma: True,
         size: (8, 8, 8)}
  mode: {ecut: 700.0,
         name: pw}
  setups: {O: :p,0.33,0}
  spinpol: True

System changes: positions, numbers, cell, pbc, initial_charges, initial_magmoms 

Initialize ...

Li-setup:
  name: Lithium
  id: b73562207f97a71b6967473b66fe8b65
  Z: 3.0
  valence: 1
  core: 2
  charge: 0.0
  file: /Users/gabrielbirnbaum/dft_learning/DIR/gpaw-setups-0.9.20000/Li.LDA.gz
  compensation charges: gauss, rc=0.33, lmax=2
  cutoffs: 1.91(filt), 2.55(core),
  valence states:
                energy  radius
    2s(1.00)    -2.874   1.058
    2p(0.00)    -1.126   1.058
    *s          24.338   1.058

  Using partial waves for Li as LCAO basis

O-setup:
  name: Oxygen
  id: 9b9d51c344dea68c822856295a461509
  Z: 8.0
  valence: 6
  core: 2
  charge: 0.0
  Hubbard U: 0.330000 eV (l=1, scale=False)
  file: /Users/gabrielbirnbaum/dft_learning/DIR/gpaw-setups-0.9.20000/O.LDA.gz
  compensation charges: gauss, rc=0.21, lmax=2
  cutoffs: 1.17(filt), 0.83(core),
  valence states:
                energy  radius
    2s(2.00)   -23.752   0.688
    2p(4.00)    -9.195   0.598
    *s           3.459   0.688
    *p          18.016   0.598
    *d           0.000   0.619

  Using partial waves for O as LCAO basis

Reference energy: -8510.849865

Spin-polarized calculation.
Magnetic moment: 0.000000

Convergence criteria:
 Maximum [total energy] change in last 3 cyles: 0.0002 eV / electron
 Maximum integral of absolute [dens]ity change: 0.001 electrons / valence electron
 Maximum integral of absolute [eigenst]ate change: 0.0001 eV^2 / valence electron
 Maximum number of scf [iter]ations: 333
 (Square brackets indicate name in SCF output, whereas a 'c' in
 the SCF output indicates the quantity has converged.)

Symmetries present (total): 4

  ( 1  0  0)  ( 1  0  0)  (-1  0  0)  (-1  0  0)
  ( 0  1  0)  ( 0 -1  0)  ( 0  1  0)  ( 0 -1  0)
  ( 0  0  1)  ( 0  0 -1)  ( 0  0  1)  ( 0  0 -1)

512 k-points: 8 x 8 x 8 Monkhorst-Pack grid + [1/16,1/16,1/16]
170 k-points in the irreducible part of the Brillouin zone
       k-points in crystal coordinates                weights
   0:     0.00000000    0.00000000    0.00000000          1/512
   1:     0.00000000    0.00000000    0.12500000          2/512
   2:     0.00000000    0.00000000    0.25000000          2/512
   3:     0.00000000    0.00000000    0.37500000          2/512
   4:     0.00000000    0.00000000    0.50000000          1/512
   5:     0.00000000    0.12500000   -0.37500000          2/512
   6:     0.00000000    0.12500000   -0.25000000          2/512
   7:     0.00000000    0.12500000   -0.12500000          2/512
   8:     0.00000000    0.12500000    0.00000000          2/512
   9:     0.00000000    0.12500000    0.12500000          2/512
          ...
 169:     0.50000000    0.50000000    0.50000000          1/512

Wave functions: Plane wave expansion
  Cutoff energy: 700.000 eV
  Number of coefficients (min, max): 2408, 2449
  Pulay-stress correction: 0.000000 eV/Ang^3 (de/decut=0.000000)
  Using Numpy's FFT
  ScaLapack parameters: grid=1x1, blocksize=None
  Wavefunction extrapolation:
    Improved wavefunction reuse through dual PAW basis 

Occupation numbers: Fermi-Dirac: width=0.1000 eV
 

Eigensolver
   Davidson(niter=2) 

Densities:
  Coarse grid: 20*25*30 grid
  Fine grid: 40*50*60 grid
  Total Charge: 0.000000 

Density mixing:
  Method: difference
  Backend: pulay
  Linear mixing parameter: 0.05
  Mixing with 5 old densities
  Damping of long wave oscillations: 50 

Hamiltonian:
  XC and Coulomb potentials evaluated on a 40*50*60 grid
  Using the LDA Exchange-Correlation functional
  External potential:
    NoExternalPotential
 

Memory estimate:
  Process memory now: 901.05 MiB
  Calculator: 333.92 MiB
    Density: 8.83 MiB
      Arrays: 4.01 MiB
      Localized functions: 3.22 MiB
      Mixer: 1.60 MiB
    Hamiltonian: 3.05 MiB
      Arrays: 2.98 MiB
      XC: 0.00 MiB
      Poisson: 0.00 MiB
      vbar: 0.08 MiB
    Wavefunctions: 322.04 MiB
      Arrays psit_nG: 254.11 MiB
      Eigensolver: 1.00 MiB
      Projections: 6.43 MiB
      Projectors: 53.58 MiB
      PW-descriptor: 6.92 MiB

Total number of cores used: 1

Number of atoms: 6
Number of atomic orbitals: 24
Number of bands in calculation: 20
Number of valence electrons: 26
Bands to converge: occupied

... initialized

Initializing position-dependent things.

Density initialized from atomic densities
Creating initial wave functions:
  20 bands from LCAO basis set

   .------.  
  /|      |  
 * | O    |  
 | O      |  
 | | Li   |  
 O |      |  
 | .--O---.  
 |/      /   
 Li-----*    

Positions:
   0 Li     1.480551    1.992835    2.448045    ( 0.0000,  0.0000,  0.0000)
   1 Li     0.000000    0.000000    0.000000    ( 0.0000,  0.0000,  0.0000)
   2 O      1.480551    2.518377    0.419218    ( 0.0000,  0.0000,  0.0000)
   3 O      1.480551    1.467292    4.476872    ( 0.0000,  0.0000,  0.0000)
   4 O      0.000000    0.525542    2.028827    ( 0.0000,  0.0000,  0.0000)
   5 O      0.000000    3.460127    2.867263    ( 0.0000,  0.0000,  0.0000)

Unit cell:
           periodic     x           y           z      points  spacing
  1. axis:    yes    2.961101    0.000000    0.000000    20     0.1481
  2. axis:    yes    0.000000    3.985669    0.000000    25     0.1594
  3. axis:    yes    0.000000    0.000000    4.896090    30     0.1632

  Lengths:   2.961101   3.985669   4.896090
  Angles:   90.000000  90.000000  90.000000

Effective grid spacing dv^(1/3) = 0.1568

     iter     time        total  log10-change:  magmom
                         energy  eigst   dens
iter:   1 15:33:33   -33.117213                  +0.0000
iter:   2 15:34:15   -33.001512  -1.63  -1.03    +0.0000
iter:   3 15:34:57   -32.256686  -1.51  -1.07    +0.0000
iter:   4 15:35:39   -32.247113  -2.07  -1.48    +0.0000
iter:   5 15:36:22   -32.226824  -2.07  -1.70    +0.0000
iter:   6 15:37:05   -32.211876  -3.70  -1.98    +0.0000
iter:   7 15:39:42   -32.209682  -4.50c -2.23    +0.0000
iter:   8 15:54:11   -32.208036c -2.86  -2.31    +0.0000
iter:   9 23:31:38   -32.206669c -4.80c -2.52    +0.0000
iter:  10 23:32:19   -32.206987c -5.64c -2.66    +0.0000
iter:  11 23:33:02   -32.205555c -3.73  -2.61    +0.0000
iter:  12 23:33:42   -32.205581c -5.96c -3.55c   +0.0000

Converged after 12 iterations.

Dipole moment: (-0.000000, 0.000000, 0.000000) |e|*Ang

Total magnetic moment: (0.000000, 0.000000, 0.000000)
Local magnetic moments:
   0 Li ( 0.000000,  0.000000,  0.000000)
   1 Li ( 0.000000,  0.000000,  0.000000)
   2 O  ( 0.000000,  0.000000,  0.000000)
   3 O  ( 0.000000,  0.000000,  0.000000)
   4 O  ( 0.000000,  0.000000,  0.000000)
   5 O  ( 0.000000,  0.000000,  0.000000)

Energy contributions relative to reference atoms: (reference = -8510.849865)

Kinetic:        +28.451621
Potential:      -30.611977
External:        +0.000000
XC:             -30.784986
Entropy (-ST):   -0.171865
Local:           +0.825694
--------------------------
Free energy:    -32.291514
Extrapolated:   -32.205581

Spin contamination: 0.000000 electrons
Showing only first 2 kpts
                      Up                     Down
 Kpt  Band  Eigenvalues  Occupancy  Eigenvalues  Occupancy
  0    11      1.83304    0.15097      1.83304    0.15097
  0    12      2.03854    0.02227      2.03854    0.02227
  0    13      2.13077    0.00898      2.13077    0.00898
  0    14      7.90336    0.00000      7.90336    0.00000

  1    11      1.73507    0.32139      1.73507    0.32139
  1    12      2.04377    0.02116      2.04377    0.02116
  1    13      2.12826    0.00920      2.12826    0.00920
  1    14      7.80362    0.00000      7.80362    0.00000


Fermi level: 1.66034

No gap
Timing:                              incl.     excl.
-----------------------------------------------------------
Hamiltonian:                         0.093     0.002   0.0% |
 Atomic:                             0.057     0.003   0.0% |
  XC Correction:                     0.054     0.054   0.0% |
 Calculate atomic Hamiltonians:      0.009     0.009   0.0% |
 Communicate:                        0.000     0.000   0.0% |
 Initialize Hamiltonian:             0.000     0.000   0.0% |
 Poisson:                            0.000     0.000   0.0% |
 XC 3D grid:                         0.026     0.026   0.0% |
LCAO initialization:               603.826     0.032   0.0% |
 LCAO eigensolver:                 576.322     0.016   0.0% |
  Calculate projections:             0.020     0.020   0.0% |
  DenseAtomicCorrection:             0.057     0.057   0.0% |
  Distribute overlap matrix:         0.008     0.008   0.0% |
  Orbital Layouts:                   0.141     0.141   0.0% |
  Potential matrix:                575.869   575.869   2.0% ||
  Sum over cells:                    0.211     0.211   0.0% |
 LCAO to grid:                      25.402    25.402   0.1% |
 Set positions (LCAO WFS):           2.071     0.304   0.0% |
  Basic WFS set positions:           0.001     0.001   0.0% |
  Basis functions set positions:     0.000     0.000   0.0% |
  P tci:                             0.792     0.792   0.0% |
  ST tci:                            0.952     0.952   0.0% |
  mktci:                             0.024     0.024   0.0% |
PWDescriptor:                        0.107     0.107   0.0% |
SCF-cycle:                       28845.450     1.730   0.0% |
 Davidson:                        3898.284    38.859   0.1% |
  Apply H:                         686.540   685.270   2.3% ||
   HMM T:                            1.270     1.270   0.0% |
  Subspace diag:                   105.303     0.315   0.0% |
   calc_h_matrix:                  101.520     2.296   0.0% |
    Apply H:                        99.225    97.314   0.3% |
     HMM T:                          1.910     1.910   0.0% |
   diagonalize:                      0.997     0.997   0.0% |
   rotate_psi:                       2.470     2.470   0.0% |
  calc. matrices:                 3057.439   794.404   2.7% ||
   Apply H:                       2263.035  2260.572   7.7% |--|
    HMM T:                           2.463     2.463   0.0% |
  diagonalize:                       5.733     5.733   0.0% |
  rotate_psi:                        4.409     4.409   0.0% |
 Density:                        24943.222     0.000   0.0% |
  Atomic density matrices:           0.303     0.303   0.0% |
  Mix:                               0.337     0.337   0.0% |
  Multipole moments:                 0.002     0.002   0.0% |
  Pseudo density:                24942.580 24942.550  84.7% |---------------------------------|
   Symmetrize density:               0.030     0.030   0.0% |
 Hamiltonian:                        1.214     0.015   0.0% |
  Atomic:                            0.709     0.047   0.0% |
   XC Correction:                    0.662     0.662   0.0% |
  Calculate atomic Hamiltonians:     0.140     0.140   0.0% |
  Communicate:                       0.000     0.000   0.0% |
  Poisson:                           0.007     0.007   0.0% |
  XC 3D grid:                        0.343     0.343   0.0% |
 Orthonormalize:                     1.000     0.019   0.0% |
  calc_s_matrix:                     0.413     0.413   0.0% |
  inverse-cholesky:                  0.023     0.023   0.0% |
  projections:                       0.453     0.453   0.0% |
  rotate_psi_s:                      0.092     0.092   0.0% |
Set symmetry:                        0.009     0.009   0.0% |
Other:                               1.511     1.511   0.0% |
-----------------------------------------------------------
Total:                                     29450.996 100.0%

Memory usage: 987.75 MiB
Date: Mon Jul 25 23:33:43 2022
