
  ___ ___ ___ _ _ _  
 |   |   |_  | | | | 
 | | | | | . | | | | 
 |__ |  _|___|_____|  22.1.0
 |___|_|             

User:   gabrielbirnbaum@Gabriels-MacBook-Pro.local
Date:   Sat Aug  6 19:28:33 2022
Arch:   x86_64
Pid:    90974
Python: 3.9.13
gpaw:   /Users/gabrielbirnbaum/PycharmProjects/nanolithia/venv/lib/python3.9/site-packages/gpaw
_gpaw:  /Users/gabrielbirnbaum/PycharmProjects/nanolithia/venv/lib/python3.9/site-packages/
        _gpaw.cpython-39-darwin.so
ase:    /Users/gabrielbirnbaum/PycharmProjects/nanolithia/venv/lib/python3.9/site-packages/ase (version 3.22.1)
numpy:  /Users/gabrielbirnbaum/PycharmProjects/nanolithia/venv/lib/python3.9/site-packages/numpy (version 1.23.0)
scipy:  /Users/gabrielbirnbaum/PycharmProjects/nanolithia/venv/lib/python3.9/site-packages/scipy (version 1.8.1)
libxc:  5.2.3
units:  Angstrom and eV
cores: 1
OpenMP: False
OMP_NUM_THREADS: 1

Input parameters:
  convergence: {density: 0.001,
                eigenstates: 0.0001,
                energy: 0.0002}
  kpts: {gamma: True,
         size: (6, 6, 6)}
  mode: {ecut: 600.0,
         name: pw}
  spinpol: False
  xc: PBE

System changes: positions, numbers, cell, pbc, initial_charges, initial_magmoms 

Initialize ...

Li-setup:
  name: Lithium
  id: 830b4218f175192f93f959cfc0aad614
  Z: 3.0
  valence: 1
  core: 2
  charge: 0.0
  file: /Users/gabrielbirnbaum/dft_learning/DIR/gpaw-setups-0.9.20000/Li.PBE.gz
  compensation charges: gauss, rc=0.33, lmax=2
  cutoffs: 1.91(filt), 2.55(core),
  valence states:
                energy  radius
    2s(1.00)    -2.874   1.058
    2p(0.00)    -1.090   1.058
    *s          24.337   1.058

  Using partial waves for Li as LCAO basis

O-setup:
  name: Oxygen
  id: 32ecd46bf208036f09c70b0ec9a88b78
  Z: 8.0
  valence: 6
  core: 2
  charge: 0.0
  file: /Users/gabrielbirnbaum/dft_learning/DIR/gpaw-setups-0.9.20000/O.PBE.gz
  compensation charges: gauss, rc=0.21, lmax=2
  cutoffs: 1.17(filt), 0.83(core),
  valence states:
                energy  radius
    2s(2.00)   -23.961   0.688
    2p(4.00)    -9.029   0.598
    *s           3.251   0.688
    *p          18.182   0.598
    *d           0.000   0.619

  Using partial waves for O as LCAO basis

Reference energy: -8568.984845

Spin-paired calculation

Convergence criteria:
 Maximum [total energy] change in last 3 cyles: 0.0002 eV / electron
 Maximum integral of absolute [dens]ity change: 0.001 electrons / valence electron
 Maximum integral of absolute [eigenst]ate change: 0.0001 eV^2 / valence electron
 Maximum number of scf [iter]ations: 333
 (Square brackets indicate name in SCF output, whereas a 'c' in
 the SCF output indicates the quantity has converged.)

Symmetries present (total): 4

  ( 1  0  0)  ( 1  0  0)  (-1  0  0)  (-1  0  0)
  ( 0  1  0)  ( 0 -1  0)  ( 0  1  0)  ( 0 -1  0)
  ( 0  0  1)  ( 0  0 -1)  ( 0  0  1)  ( 0  0 -1)

216 k-points: 6 x 6 x 6 Monkhorst-Pack grid + [1/12,1/12,1/12]
80 k-points in the irreducible part of the Brillouin zone
       k-points in crystal coordinates                weights
   0:     0.00000000    0.00000000    0.00000000          1/216
   1:     0.00000000    0.00000000    0.16666667          2/216
   2:     0.00000000    0.00000000    0.33333333          2/216
   3:     0.00000000    0.00000000    0.50000000          1/216
   4:     0.00000000    0.16666667   -0.33333333          2/216
   5:     0.00000000    0.16666667   -0.16666667          2/216
   6:     0.00000000    0.16666667    0.00000000          2/216
   7:     0.00000000    0.16666667    0.16666667          2/216
   8:     0.00000000    0.16666667    0.33333333          2/216
   9:     0.00000000    0.16666667    0.50000000          2/216
          ...
  79:     0.50000000    0.50000000    0.50000000          1/216

Wave functions: Plane wave expansion
  Cutoff energy: 600.000 eV
  Number of coefficients (min, max): 1908, 1960
  Pulay-stress correction: 0.000000 eV/Ang^3 (de/decut=0.000000)
  Using Numpy's FFT
  ScaLapack parameters: grid=1x1, blocksize=None
  Wavefunction extrapolation:
    Improved wavefunction reuse through dual PAW basis 

Occupation numbers: Fermi-Dirac: width=0.1000 eV
 

Eigensolver
   Davidson(niter=2) 

Densities:
  Coarse grid: 18*24*28 grid
  Fine grid: 36*48*56 grid
  Total Charge: 0.000000 

Density mixing:
  Method: separate
  Backend: pulay
  Linear mixing parameter: 0.05
  Mixing with 5 old densities
  Damping of long wave oscillations: 50 

Hamiltonian:
  XC and Coulomb potentials evaluated on a 36*48*56 grid
  Using the PBE Exchange-Correlation functional
  External potential:
    NoExternalPotential
 

XC parameters: PBE with 2 nearest neighbor stencil

Memory estimate:
  Process memory now: 460.02 MiB
  Calculator: 80.56 MiB
    Density: 5.88 MiB
      Arrays: 2.40 MiB
      Localized functions: 2.56 MiB
      Mixer: 0.92 MiB
    Hamiltonian: 1.63 MiB
      Arrays: 1.57 MiB
      XC: 0.00 MiB
      Poisson: 0.00 MiB
      vbar: 0.06 MiB
    Wavefunctions: 73.05 MiB
      Arrays psit_nG: 47.85 MiB
      Eigensolver: 0.81 MiB
      Projections: 1.51 MiB
      Projectors: 20.02 MiB
      PW-descriptor: 2.85 MiB

Total number of cores used: 1

Number of atoms: 6
Number of atomic orbitals: 24
Number of bands in calculation: 20
Number of valence electrons: 26
Bands to converge: occupied

... initialized

Initializing position-dependent things.

Density initialized from atomic densities
Creating initial wave functions:
  20 bands from LCAO basis set

   .------.  
  /|      |  
 * | O    |  
 | O      |  
 | | Li   |  
 O |      |  
 | .--O---.  
 |/      /   
 Li-----*    

Positions:
   0 Li     1.480551    1.992835    2.448045    ( 0.0000,  0.0000,  0.0000)
   1 Li     0.000000    0.000000    0.000000    ( 0.0000,  0.0000,  0.0000)
   2 O      1.480551    2.518377    0.419218    ( 0.0000,  0.0000,  0.0000)
   3 O      1.480551    1.467292    4.476872    ( 0.0000,  0.0000,  0.0000)
   4 O      0.000000    0.525542    2.028827    ( 0.0000,  0.0000,  0.0000)
   5 O      0.000000    3.460127    2.867263    ( 0.0000,  0.0000,  0.0000)

Unit cell:
           periodic     x           y           z      points  spacing
  1. axis:    yes    2.961101    0.000000    0.000000    18     0.1645
  2. axis:    yes    0.000000    3.985669    0.000000    24     0.1661
  3. axis:    yes    0.000000    0.000000    4.896090    28     0.1749

  Lengths:   2.961101   3.985669   4.896090
  Angles:   90.000000  90.000000  90.000000

Effective grid spacing dv^(1/3) = 0.1684

     iter     time        total  log10-change:
                         energy  eigst   dens
iter:   1 19:31:14   -30.465160
iter:   2 19:31:23   -30.345993  -1.71  -1.01
iter:   3 19:31:33   -29.629604  -1.48  -1.05
iter:   4 19:31:42   -29.650457  -2.11  -1.47
iter:   5 19:31:51   -29.634340  -2.09  -1.65
iter:   6 19:32:00   -29.627263  -4.10c -2.02
iter:   7 19:32:08   -29.624923  -4.78c -2.13
iter:   8 19:32:17   -29.621019  -2.88  -2.16
iter:   9 19:32:26   -29.621010c -4.44c -2.57
iter:  10 19:32:36   -29.620526c -5.62c -2.55
iter:  11 19:32:47   -29.619366c -4.27c -2.62
iter:  12 19:32:59   -29.619137c -4.76c -3.02c

Converged after 12 iterations.

Dipole moment: (0.000000, -0.000000, -0.000000) |e|*Ang

Energy contributions relative to reference atoms: (reference = -8568.984845)

Kinetic:        +29.784273
Potential:      -30.652375
External:        +0.000000
XC:             -29.280088
Entropy (-ST):   -0.194321
Local:           +0.626214
--------------------------
Free energy:    -29.716297
Extrapolated:   -29.619137

Showing only first 2 kpts
 Kpt  Band  Eigenvalues  Occupancy
  0    11      2.17691    0.34834
  0    12      2.39738    0.04546
  0    13      2.48964    0.01832
  0    14      8.44507    0.00000

  1    11      2.01763    1.01820
  1    12      2.40768    0.04110
  1    13      2.48618    0.01896
  1    14      8.28989    0.00000


Fermi level: 2.02128

No gap
Writing to /Users/gabrielbirnbaum/PycharmProjects/nanolithia/calculators/LiO2-mp-1018789-PBE-6x6x6-600.gpw (mode='')

Timing:                              incl.     excl.
-----------------------------------------------------------
Hamiltonian:                         0.161     0.001   0.0% |
 Atomic:                             0.121     0.001   0.0% |
  XC Correction:                     0.120     0.120   0.0% |
 Calculate atomic Hamiltonians:      0.011     0.011   0.0% |
 Communicate:                        0.000     0.000   0.0% |
 Initialize Hamiltonian:             0.000     0.000   0.0% |
 Poisson:                            0.001     0.001   0.0% |
 XC 3D grid:                         0.027     0.027   0.0% |
LCAO initialization:                 6.290     0.043   0.0% |
 LCAO eigensolver:                   0.591     0.002   0.0% |
  Calculate projections:             0.004     0.004   0.0% |
  DenseAtomicCorrection:             0.012     0.012   0.0% |
  Distribute overlap matrix:         0.001     0.001   0.0% |
  Orbital Layouts:                   0.025     0.025   0.0% |
  Potential matrix:                  0.528     0.528   0.1% |
  Sum over cells:                    0.019     0.019   0.0% |
 LCAO to grid:                       4.454     4.454   1.2% |
 Set positions (LCAO WFS):           1.201     0.179   0.0% |
  Basic WFS set positions:           0.001     0.001   0.0% |
  Basis functions set positions:     0.000     0.000   0.0% |
  P tci:                             0.429     0.429   0.1% |
  ST tci:                            0.567     0.567   0.2% |
  mktci:                             0.026     0.026   0.0% |
PWDescriptor:                        0.028     0.028   0.0% |
SCF-cycle:                         113.668     0.446   0.1% |
 Davidson:                         100.939     6.901   1.9% ||
  Apply H:                          22.156    21.905   5.9% |-|
   HMM T:                            0.251     0.251   0.1% |
  Subspace diag:                    23.381     0.060   0.0% |
   calc_h_matrix:                   22.610     0.457   0.1% |
    Apply H:                        22.152    21.893   5.9% |-|
     HMM T:                          0.259     0.259   0.1% |
   diagonalize:                      0.238     0.238   0.1% |
   rotate_psi:                       0.473     0.473   0.1% |
  calc. matrices:                   46.738     3.002   0.8% |
   Apply H:                         43.735    43.239  11.6% |----|
    HMM T:                           0.496     0.496   0.1% |
  diagonalize:                       0.900     0.900   0.2% |
  rotate_psi:                        0.863     0.863   0.2% |
 Density:                           10.293     0.000   0.0% |
  Atomic density matrices:           0.084     0.084   0.0% |
  Mix:                               0.211     0.211   0.1% |
  Multipole moments:                 0.001     0.001   0.0% |
  Pseudo density:                    9.997     9.983   2.7% ||
   Symmetrize density:               0.014     0.014   0.0% |
 Hamiltonian:                        1.829     0.011   0.0% |
  Atomic:                            1.406     0.009   0.0% |
   XC Correction:                    1.398     1.398   0.4% |
  Calculate atomic Hamiltonians:     0.118     0.118   0.0% |
  Communicate:                       0.000     0.000   0.0% |
  Poisson:                           0.004     0.004   0.0% |
  XC 3D grid:                        0.291     0.291   0.1% |
 Orthonormalize:                     0.161     0.005   0.0% |
  calc_s_matrix:                     0.036     0.036   0.0% |
  inverse-cholesky:                  0.006     0.006   0.0% |
  projections:                       0.096     0.096   0.0% |
  rotate_psi_s:                      0.019     0.019   0.0% |
Set symmetry:                        0.005     0.005   0.0% |
Other:                             251.587   251.587  67.7% |--------------------------|
-----------------------------------------------------------
Total:                                       371.739 100.0%

Date: Sat Aug  6 19:34:44 2022
