
  ___ ___ ___ _ _ _  
 |   |   |_  | | | | 
 | | | | | . | | | | 
 |__ |  _|___|_____|  22.1.0
 |___|_|             

User:   gabrielbirnbaum@Gabriels-MacBook-Pro.local
Date:   Mon Jul 25 06:30:42 2022
Arch:   x86_64
Pid:    62126
Python: 3.9.13
gpaw:   /Users/gabrielbirnbaum/PycharmProjects/nanolithia/venv/lib/python3.9/site-packages/gpaw
_gpaw:  /Users/gabrielbirnbaum/PycharmProjects/nanolithia/venv/lib/python3.9/site-packages/
        _gpaw.cpython-39-darwin.so
ase:    /Users/gabrielbirnbaum/PycharmProjects/nanolithia/venv/lib/python3.9/site-packages/ase (version 3.22.1)
numpy:  /Users/gabrielbirnbaum/PycharmProjects/nanolithia/venv/lib/python3.9/site-packages/numpy (version 1.23.0)
scipy:  /Users/gabrielbirnbaum/PycharmProjects/nanolithia/venv/lib/python3.9/site-packages/scipy (version 1.8.1)
libxc:  5.2.3
units:  Angstrom and eV
cores: 1
OpenMP: False
OMP_NUM_THREADS: 1

Input parameters:
  kpts: {gamma: True,
         size: (8, 8, 8)}
  mode: {ecut: 750.0,
         name: pw}
  setups: {O: :p,1.05,0}
  xc: PBE

System changes: positions, numbers, cell, pbc, initial_charges, initial_magmoms 

Initialize ...

O-setup:
  name: Oxygen
  id: 32ecd46bf208036f09c70b0ec9a88b78
  Z: 8.0
  valence: 6
  core: 2
  charge: 0.0
  Hubbard U: 1.050000 eV (l=1, scale=False)
  file: /Users/gabrielbirnbaum/dft_learning/DIR/gpaw-setups-0.9.20000/O.PBE.gz
  compensation charges: gauss, rc=0.21, lmax=2
  cutoffs: 1.17(filt), 0.83(core),
  valence states:
                energy  radius
    2s(2.00)   -23.961   0.688
    2p(4.00)    -9.029   0.598
    *s           3.251   0.688
    *p          18.182   0.598
    *d           0.000   0.619

  Using partial waves for O as LCAO basis

Reference energy: -8163.409205

Spin-paired calculation

Convergence criteria:
 Maximum [total energy] change in last 3 cyles: 0.0005 eV / electron
 Maximum integral of absolute [dens]ity change: 0.0001 electrons / valence electron
 Maximum integral of absolute [eigenst]ate change: 4e-08 eV^2 / valence electron
 Maximum number of scf [iter]ations: 333
 (Square brackets indicate name in SCF output, whereas a 'c' in
 the SCF output indicates the quantity has converged.)

Symmetries present (total): 4

  ( 1  0  0)  ( 1  0  0)  (-1  0  0)  (-1  0  0)
  ( 0  1  0)  ( 0 -1  0)  ( 0  1  0)  ( 0 -1  0)
  ( 0  0  1)  ( 0  0  1)  ( 0  0 -1)  ( 0  0 -1)

512 k-points: 8 x 8 x 8 Monkhorst-Pack grid + [1/16,1/16,1/16]
170 k-points in the irreducible part of the Brillouin zone
       k-points in crystal coordinates                weights
   0:     0.00000000    0.00000000    0.00000000          1/512
   1:     0.00000000    0.00000000    0.12500000          2/512
   2:     0.00000000    0.00000000    0.25000000          2/512
   3:     0.00000000    0.00000000    0.37500000          2/512
   4:     0.00000000    0.00000000    0.50000000          1/512
   5:     0.00000000    0.12500000    0.00000000          2/512
   6:     0.00000000    0.12500000    0.12500000          4/512
   7:     0.00000000    0.12500000    0.25000000          4/512
   8:     0.00000000    0.12500000    0.37500000          4/512
   9:     0.00000000    0.12500000    0.50000000          2/512
          ...
 169:     0.50000000    0.50000000    0.50000000          1/512

Wave functions: Plane wave expansion
  Cutoff energy: 750.000 eV
  Number of coefficients (min, max): 3413, 3478
  Pulay-stress correction: 0.000000 eV/Ang^3 (de/decut=0.000000)
  Using Numpy's FFT
  ScaLapack parameters: grid=1x1, blocksize=None
  Wavefunction extrapolation:
    Improved wavefunction reuse through dual PAW basis 

Occupation numbers: Fermi-Dirac: width=0.1000 eV
 

Eigensolver
   Davidson(niter=2) 

Densities:
  Coarse grid: 36*24*27 grid
  Fine grid: 72*48*54 grid
  Total Charge: 0.000000 

Density mixing:
  Method: separate
  Backend: pulay
  Linear mixing parameter: 0.05
  Mixing with 5 old densities
  Damping of long wave oscillations: 50 

Hamiltonian:
  XC and Coulomb potentials evaluated on a 72*48*54 grid
  Using the PBE Exchange-Correlation functional
  External potential:
    NoExternalPotential
 

XC parameters: PBE with 2 nearest neighbor stencil

Memory estimate:
  Process memory now: 133.28 MiB
  Calculator: 233.26 MiB
    Density: 10.05 MiB
      Arrays: 4.63 MiB
      Localized functions: 3.64 MiB
      Mixer: 1.78 MiB
    Hamiltonian: 3.10 MiB
      Arrays: 3.03 MiB
      XC: 0.00 MiB
      Poisson: 0.00 MiB
      vbar: 0.07 MiB
    Wavefunctions: 220.12 MiB
      Arrays psit_nG: 144.35 MiB
      Eigensolver: 1.15 MiB
      Projections: 2.16 MiB
      Projectors: 62.54 MiB
      PW-descriptor: 9.91 MiB

Total number of cores used: 1

Number of atoms: 4
Number of atomic orbitals: 16
Number of bands in calculation: 16
Number of valence electrons: 24
Bands to converge: occupied

... initialized

Initializing position-dependent things.

Density initialized from atomic densities
Creating initial wave functions:
  16 bands from LCAO basis set

                       
                       
                       
                       
             O         
                       
       O               
          O            
                       
            O          
                       
                       
                       
                       

Positions:
   0 O      1.766737    0.792178   -3.122947    ( 0.0000,  0.0000,  0.0000)
   1 O      0.000000   -0.070820   -0.612542    ( 0.0000,  0.0000,  0.0000)
   2 O      0.000000    3.590005   -3.122947    ( 0.0000,  0.0000,  0.0000)
   3 O      1.766737    2.727007   -0.612542    ( 0.0000,  0.0000,  0.0000)

Unit cell:
           periodic     x           y           z      points  spacing
  1. axis:    yes    0.000000    5.595654    0.000000    36     0.1359
  2. axis:    yes    3.533474    0.000000    0.000000    24     0.1472
  3. axis:    yes    0.000000   -2.076469   -3.735489    27     0.1384

  Lengths:   5.595654   3.533474   4.273828
  Angles:   90.000000 119.068636  90.000000

Effective grid spacing dv^(1/3) = 0.1468

     iter     time        total  log10-change:
                         energy  eigst   dens
iter:   1 06:31:15   -16.737137
iter:   2 06:31:40   -16.741748  -1.24  -1.23
iter:   3 06:32:08   -16.429640  -1.60  -1.27
iter:   4 06:32:35   -16.437128  -2.01  -1.66
iter:   5 06:33:02   -16.438872c -2.36  -1.95
iter:   6 06:33:28   -16.426323  -2.94  -2.09
iter:   7 06:33:54   -16.426351  -4.50  -2.99
iter:   8 06:34:21   -16.426732c -4.36  -3.10
iter:   9 06:34:47   -16.426724c -5.49  -3.11
iter:  10 06:35:13   -16.426800c -6.04  -3.04
iter:  11 06:35:39   -16.426422c -4.55  -2.98
iter:  12 06:36:05   -16.426281c -5.13  -3.37
iter:  13 06:36:30   -16.426399c -5.39  -3.46
iter:  14 06:36:57   -16.426384c -7.49c -4.24c

Converged after 14 iterations.

Dipole moment: (-0.000000, -0.000000, -0.000000) |e|*Ang

Energy contributions relative to reference atoms: (reference = -8163.409205)

Kinetic:        +18.707579
Potential:      -23.975702
External:        +0.000000
XC:             -11.885758
Entropy (-ST):   -0.313917
Local:           +0.884456
--------------------------
Free energy:    -16.583342
Extrapolated:   -16.426384

Showing only first 2 kpts
 Kpt  Band  Eigenvalues  Occupancy
  0    10     -2.02395    1.97900
  0    11     -1.39521    0.29819
  0    12     -1.33139    0.16943
  0    13     -1.31611    0.14720

  1    10     -2.00989    1.97586
  1    11     -1.37019    0.24011
  1    12     -1.36798    0.23549
  1    13     -1.31171    0.14130


Fermi level: -1.56938

No gap
Timing:                              incl.     excl.
-----------------------------------------------------------
Hamiltonian:                         0.150     0.001   0.0% |
 Atomic:                             0.090     0.002   0.0% |
  XC Correction:                     0.088     0.088   0.0% |
 Calculate atomic Hamiltonians:      0.008     0.008   0.0% |
 Communicate:                        0.000     0.000   0.0% |
 Initialize Hamiltonian:             0.000     0.000   0.0% |
 Poisson:                            0.000     0.000   0.0% |
 XC 3D grid:                         0.050     0.050   0.0% |
LCAO initialization:                 9.294     0.015   0.0% |
 LCAO eigensolver:                   0.304     0.004   0.0% |
  Calculate projections:             0.006     0.006   0.0% |
  DenseAtomicCorrection:             0.015     0.015   0.0% |
  Distribute overlap matrix:         0.002     0.002   0.0% |
  Orbital Layouts:                   0.024     0.024   0.0% |
  Potential matrix:                  0.227     0.227   0.1% |
  Sum over cells:                    0.025     0.025   0.0% |
 LCAO to grid:                       8.213     8.213   2.2% ||
 Set positions (LCAO WFS):           0.762     0.074   0.0% |
  Basic WFS set positions:           0.000     0.000   0.0% |
  Basis functions set positions:     0.000     0.000   0.0% |
  P tci:                             0.330     0.330   0.1% |
  ST tci:                            0.344     0.344   0.1% |
  mktci:                             0.013     0.013   0.0% |
PWDescriptor:                        0.082     0.082   0.0% |
SCF-cycle:                         365.092     0.449   0.1% |
 Davidson:                         329.851    22.615   6.0% |-|
  Apply H:                          73.318    72.454  19.3% |-------|
   HMM T:                            0.864     0.864   0.2% |
  Subspace diag:                    76.734     0.149   0.0% |
   calc_h_matrix:                   74.707     1.277   0.3% |
    Apply H:                        73.430    72.709  19.4% |-------|
     HMM T:                          0.721     0.721   0.2% |
   diagonalize:                      0.435     0.435   0.1% |
   rotate_psi:                       1.443     1.443   0.4% |
  calc. matrices:                  152.860     7.512   2.0% ||
   Apply H:                        145.348   143.726  38.3% |--------------|
    HMM T:                           1.622     1.622   0.4% |
  diagonalize:                       1.712     1.712   0.5% |
  rotate_psi:                        2.612     2.612   0.7% |
 Density:                           32.324     0.000   0.0% |
  Atomic density matrices:           0.120     0.120   0.0% |
  Mix:                               0.277     0.277   0.1% |
  Multipole moments:                 0.001     0.001   0.0% |
  Pseudo density:                   31.926    31.899   8.5% |--|
   Symmetrize density:               0.028     0.028   0.0% |
 Hamiltonian:                        2.062     0.017   0.0% |
  Atomic:                            1.255     0.033   0.0% |
   XC Correction:                    1.222     1.222   0.3% |
  Calculate atomic Hamiltonians:     0.127     0.127   0.0% |
  Communicate:                       0.000     0.000   0.0% |
  Poisson:                           0.007     0.007   0.0% |
  XC 3D grid:                        0.655     0.655   0.2% |
 Orthonormalize:                     0.406     0.010   0.0% |
  calc_s_matrix:                     0.059     0.059   0.0% |
  inverse-cholesky:                  0.011     0.011   0.0% |
  projections:                       0.278     0.278   0.1% |
  rotate_psi_s:                      0.047     0.047   0.0% |
Set symmetry:                        0.009     0.009   0.0% |
Other:                               1.008     1.008   0.3% |
-----------------------------------------------------------
Total:                                       375.635 100.0%

Memory usage: 579.75 MiB
Date: Mon Jul 25 06:36:58 2022
