
  ___ ___ ___ _ _ _  
 |   |   |_  | | | | 
 | | | | | . | | | | 
 |__ |  _|___|_____|  22.1.0
 |___|_|             

User:   gabrielbirnbaum@Gabriels-MacBook-Pro.local
Date:   Sat Aug  6 21:37:16 2022
Arch:   x86_64
Pid:    6664
Python: 3.9.13
gpaw:   /Users/gabrielbirnbaum/PycharmProjects/nanolithia/venv/lib/python3.9/site-packages/gpaw
_gpaw:  /Users/gabrielbirnbaum/PycharmProjects/nanolithia/venv/lib/python3.9/site-packages/
        _gpaw.cpython-39-darwin.so
ase:    /Users/gabrielbirnbaum/PycharmProjects/nanolithia/venv/lib/python3.9/site-packages/ase (version 3.22.1)
numpy:  /Users/gabrielbirnbaum/PycharmProjects/nanolithia/venv/lib/python3.9/site-packages/numpy (version 1.23.0)
scipy:  /Users/gabrielbirnbaum/PycharmProjects/nanolithia/venv/lib/python3.9/site-packages/scipy (version 1.8.1)
libxc:  5.2.3
units:  Angstrom and eV
cores: 1
OpenMP: False
OMP_NUM_THREADS: 1

Input parameters:
  convergence: {density: 0.001,
                eigenstates: 0.0001,
                energy: 0.0002}
  kpts: {gamma: True,
         size: (6, 6, 6)}
  mode: {ecut: 900.0000000000001,
         name: pw}
  spinpol: False
  xc: PBE

System changes: positions, numbers, cell, pbc, initial_charges, initial_magmoms 

Initialize ...

O-setup:
  name: Oxygen
  id: 32ecd46bf208036f09c70b0ec9a88b78
  Z: 8.0
  valence: 6
  core: 2
  charge: 0.0
  file: /Users/gabrielbirnbaum/dft_learning/DIR/gpaw-setups-0.9.20000/O.PBE.gz
  compensation charges: gauss, rc=0.21, lmax=2
  cutoffs: 1.17(filt), 0.83(core),
  valence states:
                energy  radius
    2s(2.00)   -23.961   0.688
    2p(4.00)    -9.029   0.598
    *s           3.251   0.688
    *p          18.182   0.598
    *d           0.000   0.619

  Using partial waves for O as LCAO basis

Reference energy: -8163.409205

Spin-paired calculation

Convergence criteria:
 Maximum [total energy] change in last 3 cyles: 0.0002 eV / electron
 Maximum integral of absolute [dens]ity change: 0.001 electrons / valence electron
 Maximum integral of absolute [eigenst]ate change: 0.0001 eV^2 / valence electron
 Maximum number of scf [iter]ations: 333
 (Square brackets indicate name in SCF output, whereas a 'c' in
 the SCF output indicates the quantity has converged.)

Symmetries present (total): 4

  ( 1  0  0)  ( 1  0  0)  (-1  0  0)  (-1  0  0)
  ( 0  1  0)  ( 0 -1  0)  ( 0  1  0)  ( 0 -1  0)
  ( 0  0  1)  ( 0  0  1)  ( 0  0 -1)  ( 0  0 -1)

216 k-points: 6 x 6 x 6 Monkhorst-Pack grid + [1/12,1/12,1/12]
80 k-points in the irreducible part of the Brillouin zone
       k-points in crystal coordinates                weights
   0:     0.00000000    0.00000000    0.00000000          1/216
   1:     0.00000000    0.00000000    0.16666667          2/216
   2:     0.00000000    0.00000000    0.33333333          2/216
   3:     0.00000000    0.00000000    0.50000000          1/216
   4:     0.00000000    0.16666667    0.00000000          2/216
   5:     0.00000000    0.16666667    0.16666667          4/216
   6:     0.00000000    0.16666667    0.33333333          4/216
   7:     0.00000000    0.16666667    0.50000000          2/216
   8:     0.00000000    0.33333333    0.00000000          2/216
   9:     0.00000000    0.33333333    0.16666667          4/216
          ...
  79:     0.50000000    0.50000000    0.50000000          1/216

Wave functions: Plane wave expansion
  Cutoff energy: 900.000 eV
  Number of coefficients (min, max): 4496, 4561
  Pulay-stress correction: 0.000000 eV/Ang^3 (de/decut=0.000000)
  Using Numpy's FFT
  ScaLapack parameters: grid=1x1, blocksize=None
  Wavefunction extrapolation:
    Improved wavefunction reuse through dual PAW basis 

Occupation numbers: Fermi-Dirac: width=0.1000 eV
 

Eigensolver
   Davidson(niter=2) 

Densities:
  Coarse grid: 40*25*30 grid
  Fine grid: 80*50*60 grid
  Total Charge: 0.000000 

Density mixing:
  Method: separate
  Backend: pulay
  Linear mixing parameter: 0.05
  Mixing with 5 old densities
  Damping of long wave oscillations: 50 

Hamiltonian:
  XC and Coulomb potentials evaluated on a 80*50*60 grid
  Using the PBE Exchange-Correlation functional
  External potential:
    NoExternalPotential
 

XC parameters: PBE with 2 nearest neighbor stencil

Memory estimate:
  Process memory now: 766.77 MiB
  Calculator: 154.02 MiB
    Density: 13.03 MiB
      Arrays: 5.95 MiB
      Localized functions: 4.79 MiB
      Mixer: 2.29 MiB
    Hamiltonian: 3.99 MiB
      Arrays: 3.89 MiB
      XC: 0.00 MiB
      Poisson: 0.00 MiB
      vbar: 0.10 MiB
    Wavefunctions: 137.01 MiB
      Arrays psit_nG: 89.08 MiB
      Eigensolver: 1.50 MiB
      Projections: 1.02 MiB
      Projectors: 38.70 MiB
      PW-descriptor: 6.71 MiB

Total number of cores used: 1

Number of atoms: 4
Number of atomic orbitals: 16
Number of bands in calculation: 16
Number of valence electrons: 24
Bands to converge: occupied

... initialized

Initializing position-dependent things.

Density initialized from atomic densities
Creating initial wave functions:
  16 bands from LCAO basis set

                       
                       
                       
                       
             O         
                       
       O               
          O            
                       
            O          
                       
                       
                       
                       

Positions:
   0 O      1.766737    0.792178   -3.122947    ( 0.0000,  0.0000,  0.0000)
   1 O      0.000000   -0.070820   -0.612542    ( 0.0000,  0.0000,  0.0000)
   2 O      0.000000    3.590005   -3.122947    ( 0.0000,  0.0000,  0.0000)
   3 O      1.766737    2.727007   -0.612542    ( 0.0000,  0.0000,  0.0000)

Unit cell:
           periodic     x           y           z      points  spacing
  1. axis:    yes    0.000000    5.595654    0.000000    40     0.1223
  2. axis:    yes    3.533474    0.000000    0.000000    25     0.1413
  3. axis:    yes    0.000000   -2.076469   -3.735489    30     0.1245

  Lengths:   5.595654   3.533474   4.273828
  Angles:   90.000000 119.068636  90.000000

Effective grid spacing dv^(1/3) = 0.1350

     iter     time        total  log10-change:
                         energy  eigst   dens
iter:   1 21:45:13   -19.700503
iter:   2 21:45:30   -19.700607  -1.23  -1.23
iter:   3 21:45:47   -19.362285  -1.56  -1.26
iter:   4 21:46:04   -19.365232  -2.00  -1.65
iter:   5 21:46:20   -19.363886c -3.41  -1.93
iter:   6 21:46:37   -19.372167  -2.22  -1.93
iter:   7 21:46:55   -19.355223  -3.04  -2.02
iter:   8 21:47:11   -19.355176  -4.71c -2.67
iter:   9 21:47:28   -19.356642c -3.27  -2.70
iter:  10 21:47:45   -19.355239c -4.27c -2.67
iter:  11 21:48:02   -19.355251c -6.18c -3.26c

Converged after 11 iterations.

Dipole moment: (-0.000000, -0.000000, -0.000000) |e|*Ang

Energy contributions relative to reference atoms: (reference = -8163.409205)

Kinetic:        +20.601362
Potential:      -25.650683
External:        +0.000000
XC:             -15.065253
Entropy (-ST):   -0.315009
Local:           +0.916827
--------------------------
Free energy:    -19.512755
Extrapolated:   -19.355251

Showing only first 2 kpts
 Kpt  Band  Eigenvalues  Occupancy
  0    10     -2.04772    1.97843
  0    11     -1.42274    0.30091
  0    12     -1.35880    0.17091
  0    13     -1.34408    0.14927

  1    10     -2.02111    1.97195
  1    11     -1.43222    0.32596
  1    12     -1.38030    0.20765
  1    13     -1.32527    0.12528


Fermi level: -1.59584

No gap
Writing to /Users/gabrielbirnbaum/PycharmProjects/nanolithia/calculators/O2-mp-12957-PBE-6x6x6-900.gpw (mode='')

Timing:                              incl.     excl.
-----------------------------------------------------------
Hamiltonian:                         0.191     0.001   0.0% |
 Atomic:                             0.105     0.001   0.0% |
  XC Correction:                     0.104     0.104   0.0% |
 Calculate atomic Hamiltonians:      0.009     0.009   0.0% |
 Communicate:                        0.000     0.000   0.0% |
 Initialize Hamiltonian:             0.000     0.000   0.0% |
 Poisson:                            0.001     0.001   0.0% |
 XC 3D grid:                         0.075     0.075   0.0% |
LCAO initialization:                 6.818     0.014   0.0% |
 LCAO eigensolver:                   0.463     0.002   0.0% |
  Calculate projections:             0.003     0.003   0.0% |
  DenseAtomicCorrection:             0.008     0.008   0.0% |
  Distribute overlap matrix:         0.001     0.001   0.0% |
  Orbital Layouts:                   0.013     0.013   0.0% |
  Potential matrix:                  0.421     0.421   0.1% |
  Sum over cells:                    0.014     0.014   0.0% |
 LCAO to grid:                       5.821     5.821   0.9% |
 Set positions (LCAO WFS):           0.520     0.054   0.0% |
  Basic WFS set positions:           0.000     0.000   0.0% |
  Basis functions set positions:     0.000     0.000   0.0% |
  P tci:                             0.206     0.206   0.0% |
  ST tci:                            0.244     0.244   0.0% |
  mktci:                             0.016     0.016   0.0% |
PWDescriptor:                        0.077     0.077   0.0% |
SCF-cycle:                         182.130     0.301   0.0% |
 Davidson:                         162.480    10.451   1.6% ||
  Apply H:                          35.879    35.566   5.3% |-|
   HMM T:                            0.313     0.313   0.0% |
  Subspace diag:                    38.084     0.060   0.0% |
   calc_h_matrix:                   37.132     0.550   0.1% |
    Apply H:                        36.583    36.254   5.4% |-|
     HMM T:                          0.328     0.328   0.0% |
   diagonalize:                      0.163     0.163   0.0% |
   rotate_psi:                       0.730     0.730   0.1% |
  calc. matrices:                   76.166     3.422   0.5% |
   Apply H:                         72.743    71.933  10.8% |---|
    HMM T:                           0.811     0.811   0.1% |
  diagonalize:                       0.596     0.596   0.1% |
  rotate_psi:                        1.303     1.303   0.2% |
 Density:                           17.134     0.000   0.0% |
  Atomic density matrices:           0.059     0.059   0.0% |
  Mix:                               0.269     0.269   0.0% |
  Multipole moments:                 0.001     0.001   0.0% |
  Pseudo density:                   16.804    16.769   2.5% ||
   Symmetrize density:               0.036     0.036   0.0% |
 Hamiltonian:                        1.952     0.017   0.0% |
  Atomic:                            1.037     0.006   0.0% |
   XC Correction:                    1.031     1.031   0.2% |
  Calculate atomic Hamiltonians:     0.101     0.101   0.0% |
  Communicate:                       0.000     0.000   0.0% |
  Poisson:                           0.009     0.009   0.0% |
  XC 3D grid:                        0.787     0.787   0.1% |
 Orthonormalize:                     0.264     0.005   0.0% |
  calc_s_matrix:                     0.047     0.047   0.0% |
  inverse-cholesky:                  0.005     0.005   0.0% |
  projections:                       0.175     0.175   0.0% |
  rotate_psi_s:                      0.031     0.031   0.0% |
Set symmetry:                        0.005     0.005   0.0% |
Other:                             479.847   479.847  71.7% |----------------------------|
-----------------------------------------------------------
Total:                                       669.068 100.0%

Memory usage: 1.00 GiB
Date: Sat Aug  6 21:48:26 2022
