
  ___ ___ ___ _ _ _  
 |   |   |_  | | | | 
 | | | | | . | | | | 
 |__ |  _|___|_____|  22.1.0
 |___|_|             

User:   gabrielbirnbaum@Gabriels-MacBook-Pro.local
Date:   Wed Aug  3 07:49:20 2022
Arch:   x86_64
Pid:    44568
Python: 3.9.13
gpaw:   /Users/gabrielbirnbaum/PycharmProjects/nanolithia/venv/lib/python3.9/site-packages/gpaw
_gpaw:  /Users/gabrielbirnbaum/PycharmProjects/nanolithia/venv/lib/python3.9/site-packages/
        _gpaw.cpython-39-darwin.so
ase:    /Users/gabrielbirnbaum/PycharmProjects/nanolithia/venv/lib/python3.9/site-packages/ase (version 3.22.1)
numpy:  /Users/gabrielbirnbaum/PycharmProjects/nanolithia/venv/lib/python3.9/site-packages/numpy (version 1.23.0)
scipy:  /Users/gabrielbirnbaum/PycharmProjects/nanolithia/venv/lib/python3.9/site-packages/scipy (version 1.8.1)
libxc:  5.2.3
units:  Angstrom and eV
cores: 1
OpenMP: False
OMP_NUM_THREADS: 1

Input parameters:
  convergence: {density: 0.001,
                eigenstates: 0.0001,
                energy: 0.0002}
  kpts: {gamma: True,
         size: (4, 4, 4)}
  mode: {ecut: 901.0,
         name: pw}
  spinpol: False
  xc: PBE

Input parameters:
  setups: {O: :p,0.56,0}

System changes: positions, numbers, cell, pbc, initial_charges, initial_magmoms 

Initialize ...

O-setup:
  name: Oxygen
  id: 32ecd46bf208036f09c70b0ec9a88b78
  Z: 8.0
  valence: 6
  core: 2
  charge: 0.0
  Hubbard U: 0.560000 eV (l=1, scale=False)
  file: /Users/gabrielbirnbaum/dft_learning/DIR/gpaw-setups-0.9.20000/O.PBE.gz
  compensation charges: gauss, rc=0.21, lmax=2
  cutoffs: 1.17(filt), 0.83(core),
  valence states:
                energy  radius
    2s(2.00)   -23.961   0.688
    2p(4.00)    -9.029   0.598
    *s           3.251   0.688
    *p          18.182   0.598
    *d           0.000   0.619

  Using partial waves for O as LCAO basis

Reference energy: -8163.409205

Spin-paired calculation

Convergence criteria:
 Maximum [total energy] change in last 3 cyles: 0.0002 eV / electron
 Maximum integral of absolute [dens]ity change: 0.001 electrons / valence electron
 Maximum integral of absolute [eigenst]ate change: 0.0001 eV^2 / valence electron
 Maximum number of scf [iter]ations: 333
 (Square brackets indicate name in SCF output, whereas a 'c' in
 the SCF output indicates the quantity has converged.)

Symmetries present (total): 4

  ( 1  0  0)  ( 1  0  0)  (-1  0  0)  (-1  0  0)
  ( 0  1  0)  ( 0 -1  0)  ( 0  1  0)  ( 0 -1  0)
  ( 0  0  1)  ( 0  0  1)  ( 0  0 -1)  ( 0  0 -1)

64 k-points: 4 x 4 x 4 Monkhorst-Pack grid + [1/8,1/8,1/8]
30 k-points in the irreducible part of the Brillouin zone
       k-points in crystal coordinates                weights
   0:     0.00000000    0.00000000    0.00000000          1/64
   1:     0.00000000    0.00000000    0.25000000          2/64
   2:     0.00000000    0.00000000    0.50000000          1/64
   3:     0.00000000    0.25000000    0.00000000          2/64
   4:     0.00000000    0.25000000    0.25000000          4/64
   5:     0.00000000    0.25000000    0.50000000          2/64
   6:     0.00000000    0.50000000    0.00000000          1/64
   7:     0.00000000    0.50000000    0.25000000          2/64
   8:     0.00000000    0.50000000    0.50000000          1/64
   9:     0.25000000    0.00000000   -0.25000000          2/64
          ...
  29:     0.50000000    0.50000000    0.50000000          1/64

Wave functions: Plane wave expansion
  Cutoff energy: 901.000 eV
  Number of coefficients (min, max): 4504, 4565
  Pulay-stress correction: 0.000000 eV/Ang^3 (de/decut=0.000000)
  Using Numpy's FFT
  ScaLapack parameters: grid=1x1, blocksize=None
  Wavefunction extrapolation:
    Improved wavefunction reuse through dual PAW basis 

Occupation numbers: Fermi-Dirac: width=0.1000 eV
 

Eigensolver
   Davidson(niter=2) 

Densities:
  Coarse grid: 40*25*30 grid
  Fine grid: 80*50*60 grid
  Total Charge: 0.000000 

Density mixing:
  Method: separate
  Backend: pulay
  Linear mixing parameter: 0.05
  Mixing with 5 old densities
  Damping of long wave oscillations: 50 

Hamiltonian:
  XC and Coulomb potentials evaluated on a 80*50*60 grid
  Using the PBE Exchange-Correlation functional
  External potential:
    NoExternalPotential
 

XC parameters: PBE with 2 nearest neighbor stencil

Memory estimate:
  Process memory now: 157.61 MiB
  Calculator: 70.12 MiB
    Density: 13.04 MiB
      Arrays: 5.95 MiB
      Localized functions: 4.80 MiB
      Mixer: 2.29 MiB
    Hamiltonian: 3.99 MiB
      Arrays: 3.89 MiB
      XC: 0.00 MiB
      Poisson: 0.00 MiB
      vbar: 0.10 MiB
    Wavefunctions: 53.09 MiB
      Arrays psit_nG: 33.44 MiB
      Eigensolver: 1.50 MiB
      Projections: 0.38 MiB
      Projectors: 14.54 MiB
      PW-descriptor: 3.23 MiB

Total number of cores used: 1

Number of atoms: 4
Number of atomic orbitals: 16
Number of bands in calculation: 16
Number of valence electrons: 24
Bands to converge: occupied

... initialized

Initializing position-dependent things.

Density initialized from atomic densities
Creating initial wave functions:
  16 bands from LCAO basis set

                       
                       
                       
                       
             O         
                       
       O               
          O            
                       
            O          
                       
                       
                       
                       

Positions:
   0 O      1.766737    0.792178   -3.122947    ( 0.0000,  0.0000,  0.0000)
   1 O      0.000000   -0.070820   -0.612542    ( 0.0000,  0.0000,  0.0000)
   2 O      0.000000    3.590005   -3.122947    ( 0.0000,  0.0000,  0.0000)
   3 O      1.766737    2.727007   -0.612542    ( 0.0000,  0.0000,  0.0000)

Unit cell:
           periodic     x           y           z      points  spacing
  1. axis:    yes    0.000000    5.595654    0.000000    40     0.1223
  2. axis:    yes    3.533474    0.000000    0.000000    25     0.1413
  3. axis:    yes    0.000000   -2.076469   -3.735489    30     0.1245

  Lengths:   5.595654   3.533474   4.273828
  Angles:   90.000000 119.068636  90.000000

Effective grid spacing dv^(1/3) = 0.1350

     iter     time        total  log10-change:
                         energy  eigst   dens
iter:   1 07:49:28   -18.127533
iter:   2 07:49:34   -18.130873  -1.23  -1.23
iter:   3 07:49:41   -17.806547  -1.58  -1.26
iter:   4 07:49:46   -17.811812  -2.00  -1.65
iter:   5 07:49:52   -17.810486  -3.41  -1.93
iter:   6 07:49:58   -17.815543  -2.25  -1.93
iter:   7 07:50:04   -17.800857  -3.09  -2.06
iter:   8 07:50:10   -17.800791  -4.70c -2.75
iter:   9 07:50:15   -17.803075c -3.31  -2.80
iter:  10 07:50:21   -17.801006c -4.03c -2.57
iter:  11 07:50:27   -17.801023c -5.92c -3.22c

Converged after 11 iterations.

Dipole moment: (-0.000000, -0.000000, -0.000000) |e|*Ang

Energy contributions relative to reference atoms: (reference = -8163.409205)

Kinetic:        +19.989729
Potential:      -25.140468
External:        +0.000000
XC:             -13.410434
Entropy (-ST):   -0.315975
Local:           +0.918137
--------------------------
Free energy:    -17.959010
Extrapolated:   -17.801023

Showing only first 2 kpts
 Kpt  Band  Eigenvalues  Occupancy
  0    10     -2.02937    1.97871
  0    11     -1.40228    0.29885
  0    12     -1.33814    0.16934
  0    13     -1.32336    0.14779

  1    10     -1.96347    1.95925
  1    11     -1.49993    0.63615
  1    12     -1.31726    0.13965
  1    13     -1.27097    0.09025


Fermi level: -1.57619

No gap
Writing to /Users/gabrielbirnbaum/PycharmProjects/nanolithia/calculators/O2-mp-12957-PBE-4x4x4-901.gpw (mode='')

Timing:                              incl.     excl.
-----------------------------------------------------------
Hamiltonian:                         0.175     0.001   0.0% |
 Atomic:                             0.093     0.002   0.0% |
  XC Correction:                     0.091     0.091   0.1% |
 Calculate atomic Hamiltonians:      0.013     0.013   0.0% |
 Communicate:                        0.000     0.000   0.0% |
 Initialize Hamiltonian:             0.000     0.000   0.0% |
 Poisson:                            0.001     0.001   0.0% |
 XC 3D grid:                         0.067     0.067   0.0% |
LCAO initialization:                 2.281     0.010   0.0% |
 LCAO eigensolver:                   0.320     0.001   0.0% |
  Calculate projections:             0.001     0.001   0.0% |
  DenseAtomicCorrection:             0.003     0.003   0.0% |
  Distribute overlap matrix:         0.000     0.000   0.0% |
  Orbital Layouts:                   0.005     0.005   0.0% |
  Potential matrix:                  0.305     0.305   0.2% |
  Sum over cells:                    0.005     0.005   0.0% |
 LCAO to grid:                       1.754     1.754   1.2% |
 Set positions (LCAO WFS):           0.197     0.019   0.0% |
  Basic WFS set positions:           0.000     0.000   0.0% |
  Basis functions set positions:     0.000     0.000   0.0% |
  P tci:                             0.084     0.084   0.1% |
  ST tci:                            0.081     0.081   0.1% |
  mktci:                             0.013     0.013   0.0% |
PWDescriptor:                        0.020     0.020   0.0% |
SCF-cycle:                          63.842     0.106   0.1% |
 Davidson:                          55.955     4.145   2.9% ||
  Apply H:                          12.115    11.980   8.5% |--|
   HMM T:                            0.135     0.135   0.1% |
  Subspace diag:                    13.059     0.020   0.0% |
   calc_h_matrix:                   12.728     0.229   0.2% |
    Apply H:                        12.499    12.382   8.8% |---|
     HMM T:                          0.117     0.117   0.1% |
   diagonalize:                      0.061     0.061   0.0% |
   rotate_psi:                       0.250     0.250   0.2% |
  calc. matrices:                   25.973     1.379   1.0% |
   Apply H:                         24.594    24.286  17.3% |------|
    HMM T:                           0.308     0.308   0.2% |
  diagonalize:                       0.215     0.215   0.2% |
  rotate_psi:                        0.448     0.448   0.3% |
 Density:                            5.849     0.000   0.0% |
  Atomic density matrices:           0.022     0.022   0.0% |
  Mix:                               0.316     0.316   0.2% |
  Multipole moments:                 0.001     0.001   0.0% |
  Pseudo density:                    5.509     5.478   3.9% |-|
   Symmetrize density:               0.031     0.031   0.0% |
 Hamiltonian:                        1.830     0.025   0.0% |
  Atomic:                            0.927     0.020   0.0% |
   XC Correction:                    0.907     0.907   0.6% |
  Calculate atomic Hamiltonians:     0.132     0.132   0.1% |
  Communicate:                       0.000     0.000   0.0% |
  Poisson:                           0.008     0.008   0.0% |
  XC 3D grid:                        0.737     0.737   0.5% |
 Orthonormalize:                     0.102     0.002   0.0% |
  calc_s_matrix:                     0.015     0.015   0.0% |
  inverse-cholesky:                  0.002     0.002   0.0% |
  projections:                       0.072     0.072   0.1% |
  rotate_psi_s:                      0.011     0.011   0.0% |
Set symmetry:                        0.002     0.002   0.0% |
Other:                              74.427    74.427  52.9% |--------------------|
-----------------------------------------------------------
Total:                                       140.748 100.0%

Memory usage: 811.11 MiB
Date: Wed Aug  3 07:51:41 2022
