
  ___ ___ ___ _ _ _  
 |   |   |_  | | | | 
 | | | | | . | | | | 
 |__ |  _|___|_____|  22.1.0
 |___|_|             

User:   gabrielbirnbaum@Gabriels-MacBook-Pro.local
Date:   Tue Jul 26 09:34:59 2022
Arch:   x86_64
Pid:    92584
Python: 3.9.13
gpaw:   /Users/gabrielbirnbaum/PycharmProjects/nanolithia/venv/lib/python3.9/site-packages/gpaw
_gpaw:  /Users/gabrielbirnbaum/PycharmProjects/nanolithia/venv/lib/python3.9/site-packages/
        _gpaw.cpython-39-darwin.so
ase:    /Users/gabrielbirnbaum/PycharmProjects/nanolithia/venv/lib/python3.9/site-packages/ase (version 3.22.1)
numpy:  /Users/gabrielbirnbaum/PycharmProjects/nanolithia/venv/lib/python3.9/site-packages/numpy (version 1.23.0)
scipy:  /Users/gabrielbirnbaum/PycharmProjects/nanolithia/venv/lib/python3.9/site-packages/scipy (version 1.8.1)
libxc:  5.2.3
units:  Angstrom and eV
cores: 1
OpenMP: False
OMP_NUM_THREADS: 1

Input parameters:
  kpts: {gamma: True,
         size: (8, 8, 8)}
  mode: {ecut: 450.00000000000006,
         name: pw}
  setups: {O: :p,1.05,0}

System changes: positions, numbers, cell, pbc, initial_charges, initial_magmoms 

Initialize ...

O-setup:
  name: Oxygen
  id: 9b9d51c344dea68c822856295a461509
  Z: 8.0
  valence: 6
  core: 2
  charge: 0.0
  Hubbard U: 1.050000 eV (l=1, scale=False)
  file: /Users/gabrielbirnbaum/dft_learning/DIR/gpaw-setups-0.9.20000/O.LDA.gz
  compensation charges: gauss, rc=0.21, lmax=2
  cutoffs: 1.17(filt), 0.83(core),
  valence states:
                energy  radius
    2s(2.00)   -23.752   0.688
    2p(4.00)    -9.195   0.598
    *s           3.459   0.688
    *p          18.016   0.598
    *d           0.000   0.619

  Using partial waves for O as LCAO basis

Reference energy: -8111.632273

Spin-paired calculation

Convergence criteria:
 Maximum [total energy] change in last 3 cyles: 0.0005 eV / electron
 Maximum integral of absolute [dens]ity change: 0.0001 electrons / valence electron
 Maximum integral of absolute [eigenst]ate change: 4e-08 eV^2 / valence electron
 Maximum number of scf [iter]ations: 333
 (Square brackets indicate name in SCF output, whereas a 'c' in
 the SCF output indicates the quantity has converged.)

Symmetries present (total): 4

  ( 1  0  0)  ( 1  0  0)  (-1  0  0)  (-1  0  0)
  ( 0  1  0)  ( 0 -1  0)  ( 0  1  0)  ( 0 -1  0)
  ( 0  0  1)  ( 0  0  1)  ( 0  0 -1)  ( 0  0 -1)

512 k-points: 8 x 8 x 8 Monkhorst-Pack grid + [1/16,1/16,1/16]
170 k-points in the irreducible part of the Brillouin zone
       k-points in crystal coordinates                weights
   0:     0.00000000    0.00000000    0.00000000          1/512
   1:     0.00000000    0.00000000    0.12500000          2/512
   2:     0.00000000    0.00000000    0.25000000          2/512
   3:     0.00000000    0.00000000    0.37500000          2/512
   4:     0.00000000    0.00000000    0.50000000          1/512
   5:     0.00000000    0.12500000    0.00000000          2/512
   6:     0.00000000    0.12500000    0.12500000          4/512
   7:     0.00000000    0.12500000    0.25000000          4/512
   8:     0.00000000    0.12500000    0.37500000          4/512
   9:     0.00000000    0.12500000    0.50000000          2/512
          ...
 169:     0.50000000    0.50000000    0.50000000          1/512

Wave functions: Plane wave expansion
  Cutoff energy: 450.000 eV
  Number of coefficients (min, max): 1576, 1622
  Pulay-stress correction: 0.000000 eV/Ang^3 (de/decut=0.000000)
  Using Numpy's FFT
  ScaLapack parameters: grid=1x1, blocksize=None
  Wavefunction extrapolation:
    Improved wavefunction reuse through dual PAW basis 

Occupation numbers: Fermi-Dirac: width=0.1000 eV
 

Eigensolver
   Davidson(niter=2) 

Densities:
  Coarse grid: 28*18*21 grid
  Fine grid: 56*36*42 grid
  Total Charge: 0.000000 

Density mixing:
  Method: separate
  Backend: pulay
  Linear mixing parameter: 0.05
  Mixing with 5 old densities
  Damping of long wave oscillations: 50 

Hamiltonian:
  XC and Coulomb potentials evaluated on a 56*36*42 grid
  Using the LDA Exchange-Correlation functional
  External potential:
    NoExternalPotential
 

Memory estimate:
  Process memory now: 1577.39 MiB
  Calculator: 109.72 MiB
    Density: 4.60 MiB
      Arrays: 2.10 MiB
      Localized functions: 1.69 MiB
      Mixer: 0.81 MiB
    Hamiltonian: 1.41 MiB
      Arrays: 1.37 MiB
      XC: 0.00 MiB
      Poisson: 0.00 MiB
      vbar: 0.03 MiB
    Wavefunctions: 103.72 MiB
      Arrays psit_nG: 67.32 MiB
      Eigensolver: 0.56 MiB
      Projections: 2.16 MiB
      Projectors: 29.07 MiB
      PW-descriptor: 4.61 MiB

Total number of cores used: 1

Number of atoms: 4
Number of atomic orbitals: 16
Number of bands in calculation: 16
Number of valence electrons: 24
Bands to converge: occupied

... initialized

Initializing position-dependent things.

Density initialized from atomic densities
Creating initial wave functions:
  16 bands from LCAO basis set

                       
                       
                       
                       
             O         
                       
       O               
          O            
                       
            O          
                       
                       
                       
                       

Positions:
   0 O      1.766737    0.792178   -3.122947    ( 0.0000,  0.0000,  0.0000)
   1 O      0.000000   -0.070820   -0.612542    ( 0.0000,  0.0000,  0.0000)
   2 O      0.000000    3.590005   -3.122947    ( 0.0000,  0.0000,  0.0000)
   3 O      1.766737    2.727007   -0.612542    ( 0.0000,  0.0000,  0.0000)

Unit cell:
           periodic     x           y           z      points  spacing
  1. axis:    yes    0.000000    5.595654    0.000000    28     0.1747
  2. axis:    yes    3.533474    0.000000    0.000000    18     0.1963
  3. axis:    yes    0.000000   -2.076469   -3.735489    21     0.1779

  Lengths:   5.595654   3.533474   4.273828
  Angles:   90.000000 119.068636  90.000000

Effective grid spacing dv^(1/3) = 0.1911

     iter     time        total  log10-change:
                         energy  eigst   dens
iter:   1 09:35:21   -15.110130
iter:   2 09:35:36   -15.123124  -1.27  -1.24
iter:   3 09:35:49   -14.826843  -1.72  -1.27
iter:   4 09:36:03   -14.825924  -2.01  -1.62
iter:   5 09:36:16   -14.811326  -2.33  -1.96
iter:   6 09:36:30   -14.803948  -3.51  -2.26
iter:   7 09:36:44   -14.803205c -4.72  -2.68
iter:   8 09:36:57   -14.802884c -4.69  -2.85
iter:   9 09:37:12   -14.802695c -4.61  -3.06
iter:  10 09:37:25   -14.802630c -5.44  -3.30
iter:  11 09:37:40   -14.802599c -6.24  -3.70
iter:  12 09:37:55   -14.802598c -6.91  -3.93
iter:  13 09:38:09   -14.802611c -6.66  -4.01c
iter:  14 09:38:23   -14.802608c -7.00  -3.98
iter:  15 09:38:36   -14.802607c -8.83c -4.11c

Converged after 15 iterations.

Dipole moment: (-0.000000, -0.000000, -0.000000) |e|*Ang

Energy contributions relative to reference atoms: (reference = -8111.632273)

Kinetic:         -3.546968
Potential:       +0.767248
External:        +0.000000
XC:             -11.827207
Entropy (-ST):   -0.304514
Local:           -0.043423
--------------------------
Free energy:    -14.954864
Extrapolated:   -14.802607

Showing only first 2 kpts
 Kpt  Band  Eigenvalues  Occupancy
  0    10     -2.29360    1.98422
  0    11     -1.60360    0.22489
  0    12     -1.54512    0.13187
  0    13     -1.52920    0.11357

  1    10     -2.26434    1.97891
  1    11     -1.58826    0.19604
  1    12     -1.57211    0.16928
  1    13     -1.54132    0.12728


Fermi level: -1.81020

No gap
Timing:                              incl.     excl.
-----------------------------------------------------------
Hamiltonian:                         0.046     0.003   0.0% |
 Atomic:                             0.029     0.002   0.0% |
  XC Correction:                     0.027     0.027   0.0% |
 Calculate atomic Hamiltonians:      0.004     0.004   0.0% |
 Communicate:                        0.000     0.000   0.0% |
 Initialize Hamiltonian:             0.000     0.000   0.0% |
 Poisson:                            0.000     0.000   0.0% |
 XC 3D grid:                         0.010     0.010   0.0% |
LCAO initialization:                 7.356     0.016   0.0% |
 LCAO eigensolver:                   0.203     0.004   0.0% |
  Calculate projections:             0.005     0.005   0.0% |
  DenseAtomicCorrection:             0.014     0.014   0.0% |
  Distribute overlap matrix:         0.002     0.002   0.0% |
  Orbital Layouts:                   0.022     0.022   0.0% |
  Potential matrix:                  0.129     0.129   0.1% |
  Sum over cells:                    0.027     0.027   0.0% |
 LCAO to grid:                       6.220     6.220   2.9% ||
 Set positions (LCAO WFS):           0.917     0.092   0.0% |
  Basic WFS set positions:           0.000     0.000   0.0% |
  Basis functions set positions:     0.000     0.000   0.0% |
  P tci:                             0.394     0.394   0.2% |
  ST tci:                            0.415     0.415   0.2% |
  mktci:                             0.016     0.016   0.0% |
PWDescriptor:                        0.052     0.052   0.0% |
SCF-cycle:                         208.745     0.388   0.2% |
 Davidson:                         189.678    11.083   5.1% |-|
  Apply H:                          38.926    38.477  17.7% |------|
   HMM T:                            0.450     0.450   0.2% |
  Subspace diag:                    48.226     0.166   0.1% |
   calc_h_matrix:                   46.919     1.563   0.7% |
    Apply H:                        45.356    44.883  20.7% |-------|
     HMM T:                          0.473     0.473   0.2% |
   diagonalize:                      0.418     0.418   0.2% |
   rotate_psi:                       0.723     0.723   0.3% |
  calc. matrices:                   88.670    12.359   5.7% |-|
   Apply H:                         76.311    75.427  34.8% |-------------|
    HMM T:                           0.884     0.884   0.4% |
  diagonalize:                       1.503     1.503   0.7% |
  rotate_psi:                        1.270     1.270   0.6% |
 Density:                           17.537     0.000   0.0% |
  Atomic density matrices:           0.134     0.134   0.1% |
  Mix:                               0.213     0.213   0.1% |
  Multipole moments:                 0.001     0.001   0.0% |
  Pseudo density:                   17.189    17.174   7.9% |--|
   Symmetrize density:               0.015     0.015   0.0% |
 Hamiltonian:                        0.747     0.023   0.0% |
  Atomic:                            0.466     0.036   0.0% |
   XC Correction:                    0.430     0.430   0.2% |
  Calculate atomic Hamiltonians:     0.096     0.096   0.0% |
  Communicate:                       0.000     0.000   0.0% |
  Poisson:                           0.004     0.004   0.0% |
  XC 3D grid:                        0.158     0.158   0.1% |
 Orthonormalize:                     0.396     0.010   0.0% |
  calc_s_matrix:                     0.221     0.221   0.1% |
  inverse-cholesky:                  0.012     0.012   0.0% |
  projections:                       0.127     0.127   0.1% |
  rotate_psi_s:                      0.026     0.026   0.0% |
Set symmetry:                        0.010     0.010   0.0% |
Other:                               0.831     0.831   0.4% |
-----------------------------------------------------------
Total:                                       217.040 100.0%

Memory usage: 1.55 GiB
Date: Tue Jul 26 09:38:36 2022
