
  ___ ___ ___ _ _ _  
 |   |   |_  | | | | 
 | | | | | . | | | | 
 |__ |  _|___|_____|  22.1.0
 |___|_|             

User:   gabrielbirnbaum@Gabriels-MacBook-Pro.local
Date:   Sat Aug  6 19:28:33 2022
Arch:   x86_64
Pid:    90974
Python: 3.9.13
gpaw:   /Users/gabrielbirnbaum/PycharmProjects/nanolithia/venv/lib/python3.9/site-packages/gpaw
_gpaw:  /Users/gabrielbirnbaum/PycharmProjects/nanolithia/venv/lib/python3.9/site-packages/
        _gpaw.cpython-39-darwin.so
ase:    /Users/gabrielbirnbaum/PycharmProjects/nanolithia/venv/lib/python3.9/site-packages/ase (version 3.22.1)
numpy:  /Users/gabrielbirnbaum/PycharmProjects/nanolithia/venv/lib/python3.9/site-packages/numpy (version 1.23.0)
scipy:  /Users/gabrielbirnbaum/PycharmProjects/nanolithia/venv/lib/python3.9/site-packages/scipy (version 1.8.1)
libxc:  5.2.3
units:  Angstrom and eV
cores: 1
OpenMP: False
OMP_NUM_THREADS: 1

Input parameters:
  convergence: {density: 0.001,
                eigenstates: 0.0001,
                energy: 0.0002}
  kpts: {gamma: True,
         size: (6, 6, 6)}
  mode: {ecut: 600.0,
         name: pw}
  spinpol: False
  xc: PBE

System changes: positions, numbers, cell, pbc, initial_charges, initial_magmoms 

Initialize ...

O-setup:
  name: Oxygen
  id: 32ecd46bf208036f09c70b0ec9a88b78
  Z: 8.0
  valence: 6
  core: 2
  charge: 0.0
  file: /Users/gabrielbirnbaum/dft_learning/DIR/gpaw-setups-0.9.20000/O.PBE.gz
  compensation charges: gauss, rc=0.21, lmax=2
  cutoffs: 1.17(filt), 0.83(core),
  valence states:
                energy  radius
    2s(2.00)   -23.961   0.688
    2p(4.00)    -9.029   0.598
    *s           3.251   0.688
    *p          18.182   0.598
    *d           0.000   0.619

  Using partial waves for O as LCAO basis

Reference energy: -8163.409205

Spin-paired calculation

Convergence criteria:
 Maximum [total energy] change in last 3 cyles: 0.0002 eV / electron
 Maximum integral of absolute [dens]ity change: 0.001 electrons / valence electron
 Maximum integral of absolute [eigenst]ate change: 0.0001 eV^2 / valence electron
 Maximum number of scf [iter]ations: 333
 (Square brackets indicate name in SCF output, whereas a 'c' in
 the SCF output indicates the quantity has converged.)

Symmetries present (total): 4

  ( 1  0  0)  ( 1  0  0)  (-1  0  0)  (-1  0  0)
  ( 0  1  0)  ( 0 -1  0)  ( 0  1  0)  ( 0 -1  0)
  ( 0  0  1)  ( 0  0  1)  ( 0  0 -1)  ( 0  0 -1)

216 k-points: 6 x 6 x 6 Monkhorst-Pack grid + [1/12,1/12,1/12]
80 k-points in the irreducible part of the Brillouin zone
       k-points in crystal coordinates                weights
   0:     0.00000000    0.00000000    0.00000000          1/216
   1:     0.00000000    0.00000000    0.16666667          2/216
   2:     0.00000000    0.00000000    0.33333333          2/216
   3:     0.00000000    0.00000000    0.50000000          1/216
   4:     0.00000000    0.16666667    0.00000000          2/216
   5:     0.00000000    0.16666667    0.16666667          4/216
   6:     0.00000000    0.16666667    0.33333333          4/216
   7:     0.00000000    0.16666667    0.50000000          2/216
   8:     0.00000000    0.33333333    0.00000000          2/216
   9:     0.00000000    0.33333333    0.16666667          4/216
          ...
  79:     0.50000000    0.50000000    0.50000000          1/216

Wave functions: Plane wave expansion
  Cutoff energy: 600.000 eV
  Number of coefficients (min, max): 2432, 2490
  Pulay-stress correction: 0.000000 eV/Ang^3 (de/decut=0.000000)
  Using Numpy's FFT
  ScaLapack parameters: grid=1x1, blocksize=None
  Wavefunction extrapolation:
    Improved wavefunction reuse through dual PAW basis 

Occupation numbers: Fermi-Dirac: width=0.1000 eV
 

Eigensolver
   Davidson(niter=2) 

Densities:
  Coarse grid: 32*20*25 grid
  Fine grid: 64*40*50 grid
  Total Charge: 0.000000 

Density mixing:
  Method: separate
  Backend: pulay
  Linear mixing parameter: 0.05
  Mixing with 5 old densities
  Damping of long wave oscillations: 50 

Hamiltonian:
  XC and Coulomb potentials evaluated on a 64*40*50 grid
  Using the PBE Exchange-Correlation functional
  External potential:
    NoExternalPotential
 

XC parameters: PBE with 2 nearest neighbor stencil

Memory estimate:
  Process memory now: 561.62 MiB
  Calculator: 84.32 MiB
    Density: 7.00 MiB
      Arrays: 3.17 MiB
      Localized functions: 2.61 MiB
      Mixer: 1.22 MiB
    Hamiltonian: 2.13 MiB
      Arrays: 2.08 MiB
      XC: 0.00 MiB
      Poisson: 0.00 MiB
      vbar: 0.05 MiB
    Wavefunctions: 75.20 MiB
      Arrays psit_nG: 48.63 MiB
      Eigensolver: 0.84 MiB
      Projections: 1.02 MiB
      Projectors: 21.06 MiB
      PW-descriptor: 3.65 MiB

Total number of cores used: 1

Number of atoms: 4
Number of atomic orbitals: 16
Number of bands in calculation: 16
Number of valence electrons: 24
Bands to converge: occupied

... initialized

Initializing position-dependent things.

Density initialized from atomic densities
Creating initial wave functions:
  16 bands from LCAO basis set

                       
                       
                       
                       
             O         
                       
       O               
          O            
                       
            O          
                       
                       
                       
                       

Positions:
   0 O      1.766737    0.792178   -3.122947    ( 0.0000,  0.0000,  0.0000)
   1 O      0.000000   -0.070820   -0.612542    ( 0.0000,  0.0000,  0.0000)
   2 O      0.000000    3.590005   -3.122947    ( 0.0000,  0.0000,  0.0000)
   3 O      1.766737    2.727007   -0.612542    ( 0.0000,  0.0000,  0.0000)

Unit cell:
           periodic     x           y           z      points  spacing
  1. axis:    yes    0.000000    5.595654    0.000000    32     0.1528
  2. axis:    yes    3.533474    0.000000    0.000000    20     0.1767
  3. axis:    yes    0.000000   -2.076469   -3.735489    25     0.1494

  Lengths:   5.595654   3.533474   4.273828
  Angles:   90.000000 119.068636  90.000000

Effective grid spacing dv^(1/3) = 0.1665

     iter     time        total  log10-change:
                         energy  eigst   dens
iter:   1 19:33:14   -19.351626
iter:   2 19:33:25   -19.349543  -1.29  -1.23
iter:   3 19:33:35   -19.019437  -1.59  -1.26
iter:   4 19:33:45   -19.024899  -2.07  -1.67
iter:   5 19:33:55   -19.028712  -2.41  -1.95
iter:   6 19:34:05   -19.015385  -2.93  -2.06
iter:   7 19:34:15   -19.015445  -4.37c -2.94
iter:   8 19:34:25   -19.015712c -4.52c -3.07c

Converged after 8 iterations.

Dipole moment: (0.000000, -0.000000, -0.000000) |e|*Ang

Energy contributions relative to reference atoms: (reference = -8163.409205)

Kinetic:        +17.764618
Potential:      -22.260861
External:        +0.000000
XC:             -14.973349
Entropy (-ST):   -0.315019
Local:           +0.611389
--------------------------
Free energy:    -19.173222
Extrapolated:   -19.015712

Showing only first 2 kpts
 Kpt  Band  Eigenvalues  Occupancy
  0    10     -2.04175    1.97841
  0    11     -1.41133    0.28708
  0    12     -1.35234    0.17002
  0    13     -1.33496    0.14486

  1    10     -2.01349    1.97147
  1    11     -1.42346    0.31820
  1    12     -1.37067    0.20080
  1    13     -1.32065    0.12678


Fermi level: -1.58995

No gap
Writing to /Users/gabrielbirnbaum/PycharmProjects/nanolithia/calculators/O2-mp-12957-PBE-6x6x6-600.gpw (mode='')

Timing:                              incl.     excl.
-----------------------------------------------------------
Hamiltonian:                         0.177     0.001   0.0% |
 Atomic:                             0.118     0.001   0.0% |
  XC Correction:                     0.117     0.117   0.0% |
 Calculate atomic Hamiltonians:      0.008     0.008   0.0% |
 Communicate:                        0.000     0.000   0.0% |
 Initialize Hamiltonian:             0.000     0.000   0.0% |
 Poisson:                            0.000     0.000   0.0% |
 XC 3D grid:                         0.050     0.050   0.0% |
LCAO initialization:                 4.897     0.019   0.0% |
 LCAO eigensolver:                   0.320     0.003   0.0% |
  Calculate projections:             0.003     0.003   0.0% |
  DenseAtomicCorrection:             0.010     0.010   0.0% |
  Distribute overlap matrix:         0.001     0.001   0.0% |
  Orbital Layouts:                   0.015     0.015   0.0% |
  Potential matrix:                  0.270     0.270   0.1% |
  Sum over cells:                    0.017     0.017   0.0% |
 LCAO to grid:                       3.947     3.947   1.1% |
 Set positions (LCAO WFS):           0.612     0.066   0.0% |
  Basic WFS set positions:           0.001     0.001   0.0% |
  Basis functions set positions:     0.000     0.000   0.0% |
  P tci:                             0.241     0.241   0.1% |
  ST tci:                            0.286     0.286   0.1% |
  mktci:                             0.018     0.018   0.0% |
PWDescriptor:                        0.044     0.044   0.0% |
SCF-cycle:                          79.660     0.250   0.1% |
 Davidson:                          71.151     4.729   1.3% ||
  Apply H:                          15.690    15.500   4.2% |-|
   HMM T:                            0.190     0.190   0.1% |
  Subspace diag:                    16.821     0.042   0.0% |
   calc_h_matrix:                   16.340     0.304   0.1% |
    Apply H:                        16.036    15.864   4.3% |-|
     HMM T:                          0.173     0.173   0.0% |
   diagonalize:                      0.132     0.132   0.0% |
   rotate_psi:                       0.308     0.308   0.1% |
  calc. matrices:                   32.903     1.914   0.5% |
   Apply H:                         30.989    30.612   8.2% |--|
    HMM T:                           0.377     0.377   0.1% |
  diagonalize:                       0.461     0.461   0.1% |
  rotate_psi:                        0.547     0.547   0.1% |
 Density:                            6.961     0.000   0.0% |
  Atomic density matrices:           0.042     0.042   0.0% |
  Mix:                               0.128     0.128   0.0% |
  Multipole moments:                 0.001     0.001   0.0% |
  Pseudo density:                    6.791     6.778   1.8% ||
   Symmetrize density:               0.013     0.013   0.0% |
 Hamiltonian:                        1.140     0.010   0.0% |
  Atomic:                            0.771     0.005   0.0% |
   XC Correction:                    0.766     0.766   0.2% |
  Calculate atomic Hamiltonians:     0.057     0.057   0.0% |
  Communicate:                       0.000     0.000   0.0% |
  Poisson:                           0.003     0.003   0.0% |
  XC 3D grid:                        0.299     0.299   0.1% |
 Orthonormalize:                     0.159     0.005   0.0% |
  calc_s_matrix:                     0.034     0.034   0.0% |
  inverse-cholesky:                  0.006     0.006   0.0% |
  projections:                       0.094     0.094   0.0% |
  rotate_psi_s:                      0.019     0.019   0.0% |
Set symmetry:                        0.006     0.006   0.0% |
Other:                             286.622   286.622  77.2% |------------------------------|
-----------------------------------------------------------
Total:                                       371.406 100.0%

Memory usage: 675.77 MiB
Date: Sat Aug  6 19:34:44 2022
