
  ___ ___ ___ _ _ _  
 |   |   |_  | | | | 
 | | | | | . | | | | 
 |__ |  _|___|_____|  22.1.0
 |___|_|             

User:   gabrielbirnbaum@Gabriels-MacBook-Pro.local
Date:   Sat Aug  6 19:27:07 2022
Arch:   x86_64
Pid:    90736
Python: 3.9.13
gpaw:   /Users/gabrielbirnbaum/PycharmProjects/nanolithia/venv/lib/python3.9/site-packages/gpaw
_gpaw:  /Users/gabrielbirnbaum/PycharmProjects/nanolithia/venv/lib/python3.9/site-packages/
        _gpaw.cpython-39-darwin.so
ase:    /Users/gabrielbirnbaum/PycharmProjects/nanolithia/venv/lib/python3.9/site-packages/ase (version 3.22.1)
numpy:  /Users/gabrielbirnbaum/PycharmProjects/nanolithia/venv/lib/python3.9/site-packages/numpy (version 1.23.0)
scipy:  /Users/gabrielbirnbaum/PycharmProjects/nanolithia/venv/lib/python3.9/site-packages/scipy (version 1.8.1)
libxc:  5.2.3
units:  Angstrom and eV
cores: 1
OpenMP: False
OMP_NUM_THREADS: 1

Input parameters:
  convergence: {density: 0.001,
                eigenstates: 0.0001,
                energy: 0.0002}
  kpts: {gamma: True,
         size: (4, 4, 4)}
  mode: {ecut: 540.0,
         name: pw}
  spinpol: False
  xc: PBE

System changes: positions, numbers, cell, pbc, initial_charges, initial_magmoms 

Initialize ...

O-setup:
  name: Oxygen
  id: 32ecd46bf208036f09c70b0ec9a88b78
  Z: 8.0
  valence: 6
  core: 2
  charge: 0.0
  file: /Users/gabrielbirnbaum/dft_learning/DIR/gpaw-setups-0.9.20000/O.PBE.gz
  compensation charges: gauss, rc=0.21, lmax=2
  cutoffs: 1.17(filt), 0.83(core),
  valence states:
                energy  radius
    2s(2.00)   -23.961   0.688
    2p(4.00)    -9.029   0.598
    *s           3.251   0.688
    *p          18.182   0.598
    *d           0.000   0.619

  Using partial waves for O as LCAO basis

Reference energy: -8163.409205

Spin-paired calculation

Convergence criteria:
 Maximum [total energy] change in last 3 cyles: 0.0002 eV / electron
 Maximum integral of absolute [dens]ity change: 0.001 electrons / valence electron
 Maximum integral of absolute [eigenst]ate change: 0.0001 eV^2 / valence electron
 Maximum number of scf [iter]ations: 333
 (Square brackets indicate name in SCF output, whereas a 'c' in
 the SCF output indicates the quantity has converged.)

Symmetries present (total): 4

  ( 1  0  0)  ( 1  0  0)  (-1  0  0)  (-1  0  0)
  ( 0  1  0)  ( 0 -1  0)  ( 0  1  0)  ( 0 -1  0)
  ( 0  0  1)  ( 0  0  1)  ( 0  0 -1)  ( 0  0 -1)

64 k-points: 4 x 4 x 4 Monkhorst-Pack grid + [1/8,1/8,1/8]
30 k-points in the irreducible part of the Brillouin zone
       k-points in crystal coordinates                weights
   0:     0.00000000    0.00000000    0.00000000          1/64
   1:     0.00000000    0.00000000    0.25000000          2/64
   2:     0.00000000    0.00000000    0.50000000          1/64
   3:     0.00000000    0.25000000    0.00000000          2/64
   4:     0.00000000    0.25000000    0.25000000          4/64
   5:     0.00000000    0.25000000    0.50000000          2/64
   6:     0.00000000    0.50000000    0.00000000          1/64
   7:     0.00000000    0.50000000    0.25000000          2/64
   8:     0.00000000    0.50000000    0.50000000          1/64
   9:     0.25000000    0.00000000   -0.25000000          2/64
          ...
  29:     0.50000000    0.50000000    0.50000000          1/64

Wave functions: Plane wave expansion
  Cutoff energy: 540.000 eV
  Number of coefficients (min, max): 2080, 2119
  Pulay-stress correction: 0.000000 eV/Ang^3 (de/decut=0.000000)
  Using Numpy's FFT
  ScaLapack parameters: grid=1x1, blocksize=None
  Wavefunction extrapolation:
    Improved wavefunction reuse through dual PAW basis 

Occupation numbers: Fermi-Dirac: width=0.1000 eV
 

Eigensolver
   Davidson(niter=2) 

Densities:
  Coarse grid: 30*20*24 grid
  Fine grid: 60*40*48 grid
  Total Charge: 0.000000 

Density mixing:
  Method: separate
  Backend: pulay
  Linear mixing parameter: 0.05
  Mixing with 5 old densities
  Damping of long wave oscillations: 50 

Hamiltonian:
  XC and Coulomb potentials evaluated on a 60*40*48 grid
  Using the PBE Exchange-Correlation functional
  External potential:
    NoExternalPotential
 

XC parameters: PBE with 2 nearest neighbor stencil

Memory estimate:
  Process memory now: 183.17 MiB
  Calculator: 32.97 MiB
    Density: 6.18 MiB
      Arrays: 2.86 MiB
      Localized functions: 2.22 MiB
      Mixer: 1.10 MiB
    Hamiltonian: 1.91 MiB
      Arrays: 1.87 MiB
      XC: 0.00 MiB
      Poisson: 0.00 MiB
      vbar: 0.05 MiB
    Wavefunctions: 24.88 MiB
      Arrays psit_nG: 15.52 MiB
      Eigensolver: 0.72 MiB
      Projections: 0.38 MiB
      Projectors: 6.74 MiB
      PW-descriptor: 1.52 MiB

Total number of cores used: 1

Number of atoms: 4
Number of atomic orbitals: 16
Number of bands in calculation: 16
Number of valence electrons: 24
Bands to converge: occupied

... initialized

Initializing position-dependent things.

Density initialized from atomic densities
Creating initial wave functions:
  16 bands from LCAO basis set

                       
                       
                       
                       
             O         
                       
       O               
          O            
                       
            O          
                       
                       
                       
                       

Positions:
   0 O      1.766737    0.792178   -3.122947    ( 0.0000,  0.0000,  0.0000)
   1 O      0.000000   -0.070820   -0.612542    ( 0.0000,  0.0000,  0.0000)
   2 O      0.000000    3.590005   -3.122947    ( 0.0000,  0.0000,  0.0000)
   3 O      1.766737    2.727007   -0.612542    ( 0.0000,  0.0000,  0.0000)

Unit cell:
           periodic     x           y           z      points  spacing
  1. axis:    yes    0.000000    5.595654    0.000000    30     0.1630
  2. axis:    yes    3.533474    0.000000    0.000000    20     0.1767
  3. axis:    yes    0.000000   -2.076469   -3.735489    24     0.1556

  Lengths:   5.595654   3.533474   4.273828
  Angles:   90.000000 119.068636  90.000000

Effective grid spacing dv^(1/3) = 0.1725

     iter     time        total  log10-change:
                         energy  eigst   dens
iter:   1 19:27:21   -18.787972
iter:   2 19:27:23   -18.787477  -1.32  -1.23
iter:   3 19:27:26   -18.467914  -1.61  -1.26
iter:   4 19:27:29   -18.474508  -2.07  -1.67
iter:   5 19:27:33   -18.472718  -2.49  -1.96
iter:   6 19:27:36   -18.463668  -3.03  -2.13
iter:   7 19:27:39   -18.463776  -4.47c -2.89
iter:   8 19:27:42   -18.463559c -4.79c -2.95
iter:   9 19:27:45   -18.463664c -5.44c -3.31c

Converged after 9 iterations.

Dipole moment: (-0.000000, -0.000000, -0.000000) |e|*Ang

Energy contributions relative to reference atoms: (reference = -8163.409205)

Kinetic:        +13.989493
Potential:      -17.928758
External:        +0.000000
XC:             -14.763703
Entropy (-ST):   -0.316522
Local:           +0.397564
--------------------------
Free energy:    -18.621925
Extrapolated:   -18.463664

Showing only first 2 kpts
 Kpt  Band  Eigenvalues  Occupancy
  0    10     -2.04679    1.98036
  0    11     -1.42510    0.33494
  0    12     -1.34428    0.16455
  0    13     -1.34249    0.16187

  1    10     -1.97702    1.96092
  1    11     -1.51600    0.66602
  1    12     -1.32795    0.14151
  1    13     -1.27562    0.08635


Fermi level: -1.58546

No gap
Writing to /Users/gabrielbirnbaum/PycharmProjects/nanolithia/calculators/O2-mp-12957-PBE-4x4x4-540.gpw (mode='')

Timing:                              incl.     excl.
-----------------------------------------------------------
Hamiltonian:                         0.125     0.001   0.0% |
 Atomic:                             0.087     0.001   0.0% |
  XC Correction:                     0.086     0.086   0.1% |
 Calculate atomic Hamiltonians:      0.007     0.007   0.0% |
 Communicate:                        0.000     0.000   0.0% |
 Initialize Hamiltonian:             0.000     0.000   0.0% |
 Poisson:                            0.000     0.000   0.0% |
 XC 3D grid:                         0.030     0.030   0.1% |
LCAO initialization:                 1.345     0.014   0.0% |
 LCAO eigensolver:                   0.167     0.001   0.0% |
  Calculate projections:             0.001     0.001   0.0% |
  DenseAtomicCorrection:             0.003     0.003   0.0% |
  Distribute overlap matrix:         0.000     0.000   0.0% |
  Orbital Layouts:                   0.004     0.004   0.0% |
  Potential matrix:                  0.154     0.154   0.3% |
  Sum over cells:                    0.005     0.005   0.0% |
 LCAO to grid:                       0.970     0.970   1.6% ||
 Set positions (LCAO WFS):           0.193     0.020   0.0% |
  Basic WFS set positions:           0.000     0.000   0.0% |
  Basis functions set positions:     0.000     0.000   0.0% |
  P tci:                             0.075     0.075   0.1% |
  ST tci:                            0.085     0.085   0.1% |
  mktci:                             0.012     0.012   0.0% |
PWDescriptor:                        0.010     0.010   0.0% |
SCF-cycle:                          26.479     0.085   0.1% |
 Davidson:                          22.891     1.615   2.7% ||
  Apply H:                           5.142     5.072   8.6% |--|
   HMM T:                            0.070     0.070   0.1% |
  Subspace diag:                     5.211     0.015   0.0% |
   calc_h_matrix:                    5.053     0.103   0.2% |
    Apply H:                         4.950     4.894   8.3% |--|
     HMM T:                          0.056     0.056   0.1% |
   diagonalize:                      0.048     0.048   0.1% |
   rotate_psi:                       0.096     0.096   0.2% |
  calc. matrices:                   10.585     0.612   1.0% |
   Apply H:                          9.973     9.850  16.7% |------|
    HMM T:                           0.124     0.124   0.2% |
  diagonalize:                       0.163     0.163   0.3% |
  rotate_psi:                        0.176     0.176   0.3% |
 Density:                            2.384     0.000   0.0% |
  Atomic density matrices:           0.016     0.016   0.0% |
  Mix:                               0.129     0.129   0.2% |
  Multipole moments:                 0.001     0.001   0.0% |
  Pseudo density:                    2.238     2.227   3.8% |-|
   Symmetrize density:               0.011     0.011   0.0% |
 Hamiltonian:                        1.071     0.008   0.0% |
  Atomic:                            0.751     0.005   0.0% |
   XC Correction:                    0.746     0.746   1.3% ||
  Calculate atomic Hamiltonians:     0.058     0.058   0.1% |
  Communicate:                       0.000     0.000   0.0% |
  Poisson:                           0.003     0.003   0.0% |
  XC 3D grid:                        0.250     0.250   0.4% |
 Orthonormalize:                     0.049     0.002   0.0% |
  calc_s_matrix:                     0.010     0.010   0.0% |
  inverse-cholesky:                  0.002     0.002   0.0% |
  projections:                       0.030     0.030   0.1% |
  rotate_psi_s:                      0.005     0.005   0.0% |
Set symmetry:                        0.002     0.002   0.0% |
Other:                              30.911    30.911  52.5% |--------------------|
-----------------------------------------------------------
Total:                                        58.873 100.0%

Memory usage: 345.62 MiB
Date: Sat Aug  6 19:28:06 2022
