
  ___ ___ ___ _ _ _  
 |   |   |_  | | | | 
 | | | | | . | | | | 
 |__ |  _|___|_____|  22.1.0
 |___|_|             

User:   gabrielbirnbaum@Gabriels-MacBook-Pro.local
Date:   Tue Jul 26 10:15:34 2022
Arch:   x86_64
Pid:    92584
Python: 3.9.13
gpaw:   /Users/gabrielbirnbaum/PycharmProjects/nanolithia/venv/lib/python3.9/site-packages/gpaw
_gpaw:  /Users/gabrielbirnbaum/PycharmProjects/nanolithia/venv/lib/python3.9/site-packages/
        _gpaw.cpython-39-darwin.so
ase:    /Users/gabrielbirnbaum/PycharmProjects/nanolithia/venv/lib/python3.9/site-packages/ase (version 3.22.1)
numpy:  /Users/gabrielbirnbaum/PycharmProjects/nanolithia/venv/lib/python3.9/site-packages/numpy (version 1.23.0)
scipy:  /Users/gabrielbirnbaum/PycharmProjects/nanolithia/venv/lib/python3.9/site-packages/scipy (version 1.8.1)
libxc:  5.2.3
units:  Angstrom and eV
cores: 1
OpenMP: False
OMP_NUM_THREADS: 1

Input parameters:
  kpts: {gamma: True,
         size: (8, 8, 8)}
  mode: {ecut: 800.0,
         name: pw}
  setups: {O: :p,1.05,0}

System changes: positions, numbers, cell, pbc, initial_charges, initial_magmoms 

Initialize ...

O-setup:
  name: Oxygen
  id: 9b9d51c344dea68c822856295a461509
  Z: 8.0
  valence: 6
  core: 2
  charge: 0.0
  Hubbard U: 1.050000 eV (l=1, scale=False)
  file: /Users/gabrielbirnbaum/dft_learning/DIR/gpaw-setups-0.9.20000/O.LDA.gz
  compensation charges: gauss, rc=0.21, lmax=2
  cutoffs: 1.17(filt), 0.83(core),
  valence states:
                energy  radius
    2s(2.00)   -23.752   0.688
    2p(4.00)    -9.195   0.598
    *s           3.459   0.688
    *p          18.016   0.598
    *d           0.000   0.619

  Using partial waves for O as LCAO basis

Reference energy: -8111.632273

Spin-paired calculation

Convergence criteria:
 Maximum [total energy] change in last 3 cyles: 0.0005 eV / electron
 Maximum integral of absolute [dens]ity change: 0.0001 electrons / valence electron
 Maximum integral of absolute [eigenst]ate change: 4e-08 eV^2 / valence electron
 Maximum number of scf [iter]ations: 333
 (Square brackets indicate name in SCF output, whereas a 'c' in
 the SCF output indicates the quantity has converged.)

Symmetries present (total): 4

  ( 1  0  0)  ( 1  0  0)  (-1  0  0)  (-1  0  0)
  ( 0  1  0)  ( 0 -1  0)  ( 0  1  0)  ( 0 -1  0)
  ( 0  0  1)  ( 0  0  1)  ( 0  0 -1)  ( 0  0 -1)

512 k-points: 8 x 8 x 8 Monkhorst-Pack grid + [1/16,1/16,1/16]
170 k-points in the irreducible part of the Brillouin zone
       k-points in crystal coordinates                weights
   0:     0.00000000    0.00000000    0.00000000          1/512
   1:     0.00000000    0.00000000    0.12500000          2/512
   2:     0.00000000    0.00000000    0.25000000          2/512
   3:     0.00000000    0.00000000    0.37500000          2/512
   4:     0.00000000    0.00000000    0.50000000          1/512
   5:     0.00000000    0.12500000    0.00000000          2/512
   6:     0.00000000    0.12500000    0.12500000          4/512
   7:     0.00000000    0.12500000    0.25000000          4/512
   8:     0.00000000    0.12500000    0.37500000          4/512
   9:     0.00000000    0.12500000    0.50000000          2/512
          ...
 169:     0.50000000    0.50000000    0.50000000          1/512

Wave functions: Plane wave expansion
  Cutoff energy: 800.000 eV
  Number of coefficients (min, max): 3772, 3824
  Pulay-stress correction: 0.000000 eV/Ang^3 (de/decut=0.000000)
  Using Numpy's FFT
  ScaLapack parameters: grid=1x1, blocksize=None
  Wavefunction extrapolation:
    Improved wavefunction reuse through dual PAW basis 

Occupation numbers: Fermi-Dirac: width=0.1000 eV
 

Eigensolver
   Davidson(niter=2) 

Densities:
  Coarse grid: 40*24*28 grid
  Fine grid: 80*48*56 grid
  Total Charge: 0.000000 

Density mixing:
  Method: separate
  Backend: pulay
  Linear mixing parameter: 0.05
  Mixing with 5 old densities
  Damping of long wave oscillations: 50 

Hamiltonian:
  XC and Coulomb potentials evaluated on a 80*48*56 grid
  Using the LDA Exchange-Correlation functional
  External potential:
    NoExternalPotential
 

Memory estimate:
  Process memory now: 1598.15 MiB
  Calculator: 256.95 MiB
    Density: 11.39 MiB
      Arrays: 5.33 MiB
      Localized functions: 4.01 MiB
      Mixer: 2.05 MiB
    Hamiltonian: 3.57 MiB
      Arrays: 3.49 MiB
      XC: 0.00 MiB
      Poisson: 0.00 MiB
      vbar: 0.08 MiB
    Wavefunctions: 241.99 MiB
      Arrays psit_nG: 158.71 MiB
      Eigensolver: 1.26 MiB
      Projections: 2.16 MiB
      Projectors: 68.91 MiB
      PW-descriptor: 10.94 MiB

Total number of cores used: 1

Number of atoms: 4
Number of atomic orbitals: 16
Number of bands in calculation: 16
Number of valence electrons: 24
Bands to converge: occupied

... initialized

Initializing position-dependent things.

Density initialized from atomic densities
Creating initial wave functions:
  16 bands from LCAO basis set

                       
                       
                       
                       
             O         
                       
       O               
          O            
                       
            O          
                       
                       
                       
                       

Positions:
   0 O      1.766737    0.792178   -3.122947    ( 0.0000,  0.0000,  0.0000)
   1 O      0.000000   -0.070820   -0.612542    ( 0.0000,  0.0000,  0.0000)
   2 O      0.000000    3.590005   -3.122947    ( 0.0000,  0.0000,  0.0000)
   3 O      1.766737    2.727007   -0.612542    ( 0.0000,  0.0000,  0.0000)

Unit cell:
           periodic     x           y           z      points  spacing
  1. axis:    yes    0.000000    5.595654    0.000000    40     0.1223
  2. axis:    yes    3.533474    0.000000    0.000000    24     0.1472
  3. axis:    yes    0.000000   -2.076469   -3.735489    28     0.1334

  Lengths:   5.595654   3.533474   4.273828
  Angles:   90.000000 119.068636  90.000000

Effective grid spacing dv^(1/3) = 0.1401

     iter     time        total  log10-change:
                         energy  eigst   dens
iter:   1 10:16:21   -18.664858
iter:   2 10:16:59   -18.677779  -1.16  -1.25
iter:   3 10:17:36   -18.356926  -1.62  -1.28
iter:   4 10:18:11   -18.350779  -1.93  -1.64
iter:   5 10:18:49   -18.340806  -2.35  -1.97
iter:   6 10:19:32   -18.331479  -3.04  -2.20
iter:   7 10:20:09   -18.331468c -4.68  -2.96
iter:   8 10:20:46   -18.331383c -4.90  -3.06
iter:   9 10:21:30   -18.331487c -5.26  -3.40
iter:  10 10:22:06   -18.331379c -5.58  -3.21
iter:  11 10:22:42   -18.331356c -5.93  -3.68
iter:  12 10:23:18   -18.331353c -7.48c -4.20c

Converged after 12 iterations.

Dipole moment: (-0.000000, -0.000000, -0.000000) |e|*Ang

Energy contributions relative to reference atoms: (reference = -8111.632273)

Kinetic:        +16.773065
Potential:      -22.494002
External:        +0.000000
XC:             -13.334321
Entropy (-ST):   -0.304844
Local:           +0.876328
--------------------------
Free energy:    -18.483775
Extrapolated:   -18.331353

Showing only first 2 kpts
 Kpt  Band  Eigenvalues  Occupancy
  0    10     -2.34856    1.98290
  0    11     -1.69127    0.27897
  0    12     -1.62684    0.15686
  0    13     -1.61018    0.13441

  1    10     -2.33391    1.98023
  1    11     -1.66573    0.22310
  1    12     -1.66380    0.21930
  1    13     -1.60671    0.13011


Fermi level: -1.87323

No gap
Timing:                              incl.     excl.
-----------------------------------------------------------
Hamiltonian:                         0.070     0.002   0.0% |
 Atomic:                             0.032     0.002   0.0% |
  XC Correction:                     0.030     0.030   0.0% |
 Calculate atomic Hamiltonians:      0.008     0.008   0.0% |
 Communicate:                        0.000     0.000   0.0% |
 Initialize Hamiltonian:             0.000     0.000   0.0% |
 Poisson:                            0.001     0.001   0.0% |
 XC 3D grid:                         0.027     0.027   0.0% |
LCAO initialization:                14.453     0.016   0.0% |
 LCAO eigensolver:                   0.481     0.005   0.0% |
  Calculate projections:             0.006     0.006   0.0% |
  DenseAtomicCorrection:             0.019     0.019   0.0% |
  Distribute overlap matrix:         0.003     0.003   0.0% |
  Orbital Layouts:                   0.029     0.029   0.0% |
  Potential matrix:                  0.388     0.388   0.1% |
  Sum over cells:                    0.032     0.032   0.0% |
 LCAO to grid:                      12.865    12.865   2.8% ||
 Set positions (LCAO WFS):           1.091     0.112   0.0% |
  Basic WFS set positions:           0.000     0.000   0.0% |
  Basis functions set positions:     0.000     0.000   0.0% |
  P tci:                             0.465     0.465   0.1% |
  ST tci:                            0.497     0.497   0.1% |
  mktci:                             0.017     0.017   0.0% |
PWDescriptor:                        0.184     0.184   0.0% |
SCF-cycle:                         448.216     0.462   0.1% |
 Davidson:                         405.323    27.654   6.0% |-|
  Apply H:                          87.894    86.608  18.6% |------|
   HMM T:                            1.286     1.286   0.3% |
  Subspace diag:                   100.499     0.171   0.0% |
   calc_h_matrix:                   98.101     1.625   0.3% |
    Apply H:                        96.476    95.570  20.6% |-------|
     HMM T:                          0.906     0.906   0.2% |
   diagonalize:                      0.488     0.488   0.1% |
   rotate_psi:                       1.739     1.739   0.4% |
  calc. matrices:                  184.086    10.665   2.3% ||
   Apply H:                        173.421   171.001  36.8% |--------------|
    HMM T:                           2.420     2.420   0.5% |
  diagonalize:                       2.052     2.052   0.4% |
  rotate_psi:                        3.138     3.138   0.7% |
 Density:                           40.820     0.000   0.0% |
  Atomic density matrices:           0.146     0.146   0.0% |
  Mix:                               0.355     0.355   0.1% |
  Multipole moments:                 0.001     0.001   0.0% |
  Pseudo density:                   40.317    40.280   8.7% |--|
   Symmetrize density:               0.038     0.038   0.0% |
 Hamiltonian:                        1.037     0.027   0.0% |
  Atomic:                            0.461     0.037   0.0% |
   XC Correction:                    0.424     0.424   0.1% |
  Calculate atomic Hamiltonians:     0.152     0.152   0.0% |
  Communicate:                       0.000     0.000   0.0% |
  Poisson:                           0.009     0.009   0.0% |
  XC 3D grid:                        0.387     0.387   0.1% |
 Orthonormalize:                     0.574     0.013   0.0% |
  calc_s_matrix:                     0.141     0.141   0.0% |
  inverse-cholesky:                  0.014     0.014   0.0% |
  projections:                       0.341     0.341   0.1% |
  rotate_psi_s:                      0.065     0.065   0.0% |
Set symmetry:                        0.012     0.012   0.0% |
Other:                               1.502     1.502   0.3% |
-----------------------------------------------------------
Total:                                       464.436 100.0%

Memory usage: 1.56 GiB
Date: Tue Jul 26 10:23:18 2022
