
  ___ ___ ___ _ _ _  
 |   |   |_  | | | | 
 | | | | | . | | | | 
 |__ |  _|___|_____|  22.1.0
 |___|_|             

User:   gabrielbirnbaum@Gabriels-MacBook-Pro.local
Date:   Tue Jul 26 10:23:18 2022
Arch:   x86_64
Pid:    92584
Python: 3.9.13
gpaw:   /Users/gabrielbirnbaum/PycharmProjects/nanolithia/venv/lib/python3.9/site-packages/gpaw
_gpaw:  /Users/gabrielbirnbaum/PycharmProjects/nanolithia/venv/lib/python3.9/site-packages/
        _gpaw.cpython-39-darwin.so
ase:    /Users/gabrielbirnbaum/PycharmProjects/nanolithia/venv/lib/python3.9/site-packages/ase (version 3.22.1)
numpy:  /Users/gabrielbirnbaum/PycharmProjects/nanolithia/venv/lib/python3.9/site-packages/numpy (version 1.23.0)
scipy:  /Users/gabrielbirnbaum/PycharmProjects/nanolithia/venv/lib/python3.9/site-packages/scipy (version 1.8.1)
libxc:  5.2.3
units:  Angstrom and eV
cores: 1
OpenMP: False
OMP_NUM_THREADS: 1

Input parameters:
  kpts: {gamma: True,
         size: (8, 8, 8)}
  mode: {ecut: 850.0,
         name: pw}
  setups: {O: :p,1.05,0}

System changes: positions, numbers, cell, pbc, initial_charges, initial_magmoms 

Initialize ...

O-setup:
  name: Oxygen
  id: 9b9d51c344dea68c822856295a461509
  Z: 8.0
  valence: 6
  core: 2
  charge: 0.0
  Hubbard U: 1.050000 eV (l=1, scale=False)
  file: /Users/gabrielbirnbaum/dft_learning/DIR/gpaw-setups-0.9.20000/O.LDA.gz
  compensation charges: gauss, rc=0.21, lmax=2
  cutoffs: 1.17(filt), 0.83(core),
  valence states:
                energy  radius
    2s(2.00)   -23.752   0.688
    2p(4.00)    -9.195   0.598
    *s           3.459   0.688
    *p          18.016   0.598
    *d           0.000   0.619

  Using partial waves for O as LCAO basis

Reference energy: -8111.632273

Spin-paired calculation

Convergence criteria:
 Maximum [total energy] change in last 3 cyles: 0.0005 eV / electron
 Maximum integral of absolute [dens]ity change: 0.0001 electrons / valence electron
 Maximum integral of absolute [eigenst]ate change: 4e-08 eV^2 / valence electron
 Maximum number of scf [iter]ations: 333
 (Square brackets indicate name in SCF output, whereas a 'c' in
 the SCF output indicates the quantity has converged.)

Symmetries present (total): 4

  ( 1  0  0)  ( 1  0  0)  (-1  0  0)  (-1  0  0)
  ( 0  1  0)  ( 0 -1  0)  ( 0  1  0)  ( 0 -1  0)
  ( 0  0  1)  ( 0  0  1)  ( 0  0 -1)  ( 0  0 -1)

512 k-points: 8 x 8 x 8 Monkhorst-Pack grid + [1/16,1/16,1/16]
170 k-points in the irreducible part of the Brillouin zone
       k-points in crystal coordinates                weights
   0:     0.00000000    0.00000000    0.00000000          1/512
   1:     0.00000000    0.00000000    0.12500000          2/512
   2:     0.00000000    0.00000000    0.25000000          2/512
   3:     0.00000000    0.00000000    0.37500000          2/512
   4:     0.00000000    0.00000000    0.50000000          1/512
   5:     0.00000000    0.12500000    0.00000000          2/512
   6:     0.00000000    0.12500000    0.12500000          4/512
   7:     0.00000000    0.12500000    0.25000000          4/512
   8:     0.00000000    0.12500000    0.37500000          4/512
   9:     0.00000000    0.12500000    0.50000000          2/512
          ...
 169:     0.50000000    0.50000000    0.50000000          1/512

Wave functions: Plane wave expansion
  Cutoff energy: 850.000 eV
  Number of coefficients (min, max): 4134, 4189
  Pulay-stress correction: 0.000000 eV/Ang^3 (de/decut=0.000000)
  Using Numpy's FFT
  ScaLapack parameters: grid=1x1, blocksize=None
  Wavefunction extrapolation:
    Improved wavefunction reuse through dual PAW basis 

Occupation numbers: Fermi-Dirac: width=0.1000 eV
 

Eigensolver
   Davidson(niter=2) 

Densities:
  Coarse grid: 40*24*30 grid
  Fine grid: 80*48*60 grid
  Total Charge: 0.000000 

Density mixing:
  Method: separate
  Backend: pulay
  Linear mixing parameter: 0.05
  Mixing with 5 old densities
  Damping of long wave oscillations: 50 

Hamiltonian:
  XC and Coulomb potentials evaluated on a 80*48*60 grid
  Using the LDA Exchange-Correlation functional
  External potential:
    NoExternalPotential
 

Memory estimate:
  Process memory now: 1598.15 MiB
  Calculator: 280.97 MiB
    Density: 12.31 MiB
      Arrays: 5.71 MiB
      Localized functions: 4.40 MiB
      Mixer: 2.20 MiB
    Hamiltonian: 3.83 MiB
      Arrays: 3.74 MiB
      XC: 0.00 MiB
      Poisson: 0.00 MiB
      vbar: 0.09 MiB
    Wavefunctions: 264.84 MiB
      Arrays psit_nG: 173.86 MiB
      Eigensolver: 1.38 MiB
      Projections: 2.16 MiB
      Projectors: 75.47 MiB
      PW-descriptor: 11.96 MiB

Total number of cores used: 1

Number of atoms: 4
Number of atomic orbitals: 16
Number of bands in calculation: 16
Number of valence electrons: 24
Bands to converge: occupied

... initialized

Initializing position-dependent things.

Density initialized from atomic densities
Creating initial wave functions:
  16 bands from LCAO basis set

                       
                       
                       
                       
             O         
                       
       O               
          O            
                       
            O          
                       
                       
                       
                       

Positions:
   0 O      1.766737    0.792178   -3.122947    ( 0.0000,  0.0000,  0.0000)
   1 O      0.000000   -0.070820   -0.612542    ( 0.0000,  0.0000,  0.0000)
   2 O      0.000000    3.590005   -3.122947    ( 0.0000,  0.0000,  0.0000)
   3 O      1.766737    2.727007   -0.612542    ( 0.0000,  0.0000,  0.0000)

Unit cell:
           periodic     x           y           z      points  spacing
  1. axis:    yes    0.000000    5.595654    0.000000    40     0.1223
  2. axis:    yes    3.533474    0.000000    0.000000    24     0.1472
  3. axis:    yes    0.000000   -2.076469   -3.735489    30     0.1245

  Lengths:   5.595654   3.533474   4.273828
  Angles:   90.000000 119.068636  90.000000

Effective grid spacing dv^(1/3) = 0.1369

     iter     time        total  log10-change:
                         energy  eigst   dens
iter:   1 10:24:11   -18.668639
iter:   2 10:24:50   -18.682223  -1.15  -1.25
iter:   3 10:25:34   -18.361387  -1.62  -1.28
iter:   4 10:26:14   -18.355931  -1.92  -1.64
iter:   5 10:26:52   -18.345205  -2.34  -1.96
iter:   6 10:27:29   -18.336008  -3.04  -2.20
iter:   7 10:28:08   -18.336002c -4.68  -2.96
iter:   8 10:28:48   -18.335916c -4.89  -3.06
iter:   9 10:29:33   -18.336020c -5.26  -3.40
iter:  10 10:30:14   -18.335911c -5.57  -3.21
iter:  11 10:30:52   -18.335888c -5.94  -3.68
iter:  12 10:31:32   -18.335885c -7.49c -4.20c

Converged after 12 iterations.

Dipole moment: (-0.000000, -0.000000, -0.000000) |e|*Ang

Energy contributions relative to reference atoms: (reference = -8111.632273)

Kinetic:        +16.851670
Potential:      -22.579878
External:        +0.000000
XC:             -13.337950
Entropy (-ST):   -0.304828
Local:           +0.882687
--------------------------
Free energy:    -18.488299
Extrapolated:   -18.335885

Showing only first 2 kpts
 Kpt  Band  Eigenvalues  Occupancy
  0    10     -2.34843    1.98291
  0    11     -1.69112    0.27900
  0    12     -1.62663    0.15680
  0    13     -1.61005    0.13445

  1    10     -2.33381    1.98024
  1    11     -1.66558    0.22314
  1    12     -1.66367    0.21937
  1    13     -1.60649    0.13005


Fermi level: -1.87306

No gap
Timing:                              incl.     excl.
-----------------------------------------------------------
Hamiltonian:                         0.068     0.002   0.0% |
 Atomic:                             0.030     0.002   0.0% |
  XC Correction:                     0.028     0.028   0.0% |
 Calculate atomic Hamiltonians:      0.008     0.008   0.0% |
 Communicate:                        0.000     0.000   0.0% |
 Initialize Hamiltonian:             0.000     0.000   0.0% |
 Poisson:                            0.001     0.001   0.0% |
 XC 3D grid:                         0.028     0.028   0.0% |
LCAO initialization:                14.818     0.017   0.0% |
 LCAO eigensolver:                   0.479     0.004   0.0% |
  Calculate projections:             0.004     0.004   0.0% |
  DenseAtomicCorrection:             0.017     0.017   0.0% |
  Distribute overlap matrix:         0.002     0.002   0.0% |
  Orbital Layouts:                   0.027     0.027   0.0% |
  Potential matrix:                  0.395     0.395   0.1% |
  Sum over cells:                    0.029     0.029   0.0% |
 LCAO to grid:                      13.278    13.278   2.7% ||
 Set positions (LCAO WFS):           1.045     0.105   0.0% |
  Basic WFS set positions:           0.000     0.000   0.0% |
  Basis functions set positions:     0.000     0.000   0.0% |
  P tci:                             0.455     0.455   0.1% |
  ST tci:                            0.469     0.469   0.1% |
  mktci:                             0.016     0.016   0.0% |
PWDescriptor:                        0.249     0.249   0.1% |
SCF-cycle:                         476.738     0.472   0.1% |
 Davidson:                         430.708    28.450   5.8% |-|
  Apply H:                          93.617    92.266  18.7% |------|
   HMM T:                            1.351     1.351   0.3% |
  Subspace diag:                   105.293     0.168   0.0% |
   calc_h_matrix:                  102.763     1.826   0.4% |
    Apply H:                       100.936   100.042  20.3% |-------|
     HMM T:                          0.894     0.894   0.2% |
   diagonalize:                      0.477     0.477   0.1% |
   rotate_psi:                       1.885     1.885   0.4% |
  calc. matrices:                  197.858    13.879   2.8% ||
   Apply H:                        183.979   182.003  36.9% |--------------|
    HMM T:                           1.975     1.975   0.4% |
  diagonalize:                       2.044     2.044   0.4% |
  rotate_psi:                        3.446     3.446   0.7% |
 Density:                           43.812     0.000   0.0% |
  Atomic density matrices:           0.146     0.146   0.0% |
  Mix:                               0.340     0.340   0.1% |
  Multipole moments:                 0.001     0.001   0.0% |
  Pseudo density:                   43.324    43.283   8.8% |---|
   Symmetrize density:               0.041     0.041   0.0% |
 Hamiltonian:                        1.039     0.035   0.0% |
  Atomic:                            0.453     0.037   0.0% |
   XC Correction:                    0.416     0.416   0.1% |
  Calculate atomic Hamiltonians:     0.152     0.152   0.0% |
  Communicate:                       0.000     0.000   0.0% |
  Poisson:                           0.010     0.010   0.0% |
  XC 3D grid:                        0.389     0.389   0.1% |
 Orthonormalize:                     0.707     0.013   0.0% |
  calc_s_matrix:                     0.213     0.213   0.0% |
  inverse-cholesky:                  0.015     0.015   0.0% |
  projections:                       0.390     0.390   0.1% |
  rotate_psi_s:                      0.075     0.075   0.0% |
Set symmetry:                        0.012     0.012   0.0% |
Other:                               1.614     1.614   0.3% |
-----------------------------------------------------------
Total:                                       493.499 100.0%

Memory usage: 1.56 GiB
Date: Tue Jul 26 10:31:32 2022
