
  ___ ___ ___ _ _ _  
 |   |   |_  | | | | 
 | | | | | . | | | | 
 |__ |  _|___|_____|  22.1.0
 |___|_|             

User:   gabrielbirnbaum@Gabriels-MacBook-Pro.local
Date:   Sun Jul 31 21:50:06 2022
Arch:   x86_64
Pid:    85834
Python: 3.9.13
gpaw:   /Users/gabrielbirnbaum/PycharmProjects/nanolithia/venv/lib/python3.9/site-packages/gpaw
_gpaw:  /Users/gabrielbirnbaum/PycharmProjects/nanolithia/venv/lib/python3.9/site-packages/
        _gpaw.cpython-39-darwin.so
ase:    /Users/gabrielbirnbaum/PycharmProjects/nanolithia/venv/lib/python3.9/site-packages/ase (version 3.22.1)
numpy:  /Users/gabrielbirnbaum/PycharmProjects/nanolithia/venv/lib/python3.9/site-packages/numpy (version 1.23.0)
scipy:  /Users/gabrielbirnbaum/PycharmProjects/nanolithia/venv/lib/python3.9/site-packages/scipy (version 1.8.1)
libxc:  5.2.3
units:  Angstrom and eV
cores: 1
OpenMP: False
OMP_NUM_THREADS: 1

Input parameters:
  convergence: {density: 0.001,
                eigenstates: 0.0001,
                energy: 0.0002}
  kpts: {gamma: True,
         size: (4, 4, 4)}
  mode: {ecut: 900.0000000000001,
         name: pw}
  spinpol: False
  xc: PBE

Input parameters:
  setups: {O: :p,0.75,0}

Memory usage: 172.79 MiB
Date: Sun Jul 31 21:50:06 2022
