
  ___ ___ ___ _ _ _  
 |   |   |_  | | | | 
 | | | | | . | | | | 
 |__ |  _|___|_____|  22.1.0
 |___|_|             

User:   gabrielbirnbaum@Gabriels-MacBook-Pro.local
Date:   Wed Aug  3 19:09:35 2022
Arch:   x86_64
Pid:    19264
Python: 3.9.13
gpaw:   /Users/gabrielbirnbaum/PycharmProjects/nanolithia/venv/lib/python3.9/site-packages/gpaw
_gpaw:  /Users/gabrielbirnbaum/PycharmProjects/nanolithia/venv/lib/python3.9/site-packages/
        _gpaw.cpython-39-darwin.so
ase:    /Users/gabrielbirnbaum/PycharmProjects/nanolithia/venv/lib/python3.9/site-packages/ase (version 3.22.1)
numpy:  /Users/gabrielbirnbaum/PycharmProjects/nanolithia/venv/lib/python3.9/site-packages/numpy (version 1.23.0)
scipy:  /Users/gabrielbirnbaum/PycharmProjects/nanolithia/venv/lib/python3.9/site-packages/scipy (version 1.8.1)
libxc:  5.2.3
units:  Angstrom and eV
cores: 1
OpenMP: False
OMP_NUM_THREADS: 1

Input parameters:
  convergence: {density: 0.001,
                eigenstates: 0.0001,
                energy: 0.0002}
  kpts: {gamma: True,
         size: (4, 4, 4)}
  mode: {ecut: 1000.0,
         name: pw}
  spinpol: False
  xc: PBE

System changes: positions, numbers, cell, pbc, initial_charges, initial_magmoms 

Initialize ...

O-setup:
  name: Oxygen
  id: 32ecd46bf208036f09c70b0ec9a88b78
  Z: 8.0
  valence: 6
  core: 2
  charge: 0.0
  file: /Users/gabrielbirnbaum/dft_learning/DIR/gpaw-setups-0.9.20000/O.PBE.gz
  compensation charges: gauss, rc=0.21, lmax=2
  cutoffs: 1.17(filt), 0.83(core),
  valence states:
                energy  radius
    2s(2.00)   -23.961   0.688
    2p(4.00)    -9.029   0.598
    *s           3.251   0.688
    *p          18.182   0.598
    *d           0.000   0.619

  Using partial waves for O as LCAO basis

Reference energy: -8163.409205

Spin-paired calculation

Convergence criteria:
 Maximum [total energy] change in last 3 cyles: 0.0002 eV / electron
 Maximum integral of absolute [dens]ity change: 0.001 electrons / valence electron
 Maximum integral of absolute [eigenst]ate change: 0.0001 eV^2 / valence electron
 Maximum number of scf [iter]ations: 333
 (Square brackets indicate name in SCF output, whereas a 'c' in
 the SCF output indicates the quantity has converged.)

Symmetries present (total): 4

  ( 1  0  0)  ( 1  0  0)  (-1  0  0)  (-1  0  0)
  ( 0  1  0)  ( 0 -1  0)  ( 0  1  0)  ( 0 -1  0)
  ( 0  0  1)  ( 0  0  1)  ( 0  0 -1)  ( 0  0 -1)

64 k-points: 4 x 4 x 4 Monkhorst-Pack grid + [1/8,1/8,1/8]
30 k-points in the irreducible part of the Brillouin zone
       k-points in crystal coordinates                weights
   0:     0.00000000    0.00000000    0.00000000          1/64
   1:     0.00000000    0.00000000    0.25000000          2/64
   2:     0.00000000    0.00000000    0.50000000          1/64
   3:     0.00000000    0.25000000    0.00000000          2/64
   4:     0.00000000    0.25000000    0.25000000          4/64
   5:     0.00000000    0.25000000    0.50000000          2/64
   6:     0.00000000    0.50000000    0.00000000          1/64
   7:     0.00000000    0.50000000    0.25000000          2/64
   8:     0.00000000    0.50000000    0.50000000          1/64
   9:     0.25000000    0.00000000   -0.25000000          2/64
          ...
  29:     0.50000000    0.50000000    0.50000000          1/64

Wave functions: Plane wave expansion
  Cutoff energy: 1000.000 eV
  Number of coefficients (min, max): 5280, 5334
  Pulay-stress correction: 0.000000 eV/Ang^3 (de/decut=0.000000)
  Using Numpy's FFT
  ScaLapack parameters: grid=1x1, blocksize=None
  Wavefunction extrapolation:
    Improved wavefunction reuse through dual PAW basis 

Occupation numbers: Fermi-Dirac: width=0.1000 eV
 

Eigensolver
   Davidson(niter=2) 

Densities:
  Coarse grid: 42*27*32 grid
  Fine grid: 84*54*64 grid
  Total Charge: 0.000000 

Density mixing:
  Method: separate
  Backend: pulay
  Linear mixing parameter: 0.05
  Mixing with 5 old densities
  Damping of long wave oscillations: 50 

Hamiltonian:
  XC and Coulomb potentials evaluated on a 84*54*64 grid
  Using the PBE Exchange-Correlation functional
  External potential:
    NoExternalPotential
 

XC parameters: PBE with 2 nearest neighbor stencil

Memory estimate:
  Process memory now: 813.37 MiB
  Calculator: 82.41 MiB
    Density: 15.58 MiB
      Arrays: 7.20 MiB
      Localized functions: 5.61 MiB
      Mixer: 2.77 MiB
    Hamiltonian: 4.82 MiB
      Arrays: 4.71 MiB
      XC: 0.00 MiB
      Poisson: 0.00 MiB
      vbar: 0.11 MiB
    Wavefunctions: 62.01 MiB
      Arrays psit_nG: 39.07 MiB
      Eigensolver: 1.75 MiB
      Projections: 0.38 MiB
      Projectors: 16.99 MiB
      PW-descriptor: 3.83 MiB

Total number of cores used: 1

Number of atoms: 4
Number of atomic orbitals: 16
Number of bands in calculation: 16
Number of valence electrons: 24
Bands to converge: occupied

... initialized

Initializing position-dependent things.

Density initialized from atomic densities
Creating initial wave functions:
  16 bands from LCAO basis set

                       
                       
                       
                       
             O         
                       
       O               
          O            
                       
            O          
                       
                       
                       
                       

Positions:
   0 O      1.766737    0.792178   -3.122947    ( 0.0000,  0.0000,  0.0000)
   1 O      0.000000   -0.070820   -0.612542    ( 0.0000,  0.0000,  0.0000)
   2 O      0.000000    3.590005   -3.122947    ( 0.0000,  0.0000,  0.0000)
   3 O      1.766737    2.727007   -0.612542    ( 0.0000,  0.0000,  0.0000)

Unit cell:
           periodic     x           y           z      points  spacing
  1. axis:    yes    0.000000    5.595654    0.000000    42     0.1164
  2. axis:    yes    3.533474    0.000000    0.000000    27     0.1309
  3. axis:    yes    0.000000   -2.076469   -3.735489    32     0.1167

  Lengths:   5.595654   3.533474   4.273828
  Angles:   90.000000 119.068636  90.000000

Effective grid spacing dv^(1/3) = 0.1267

     iter     time        total  log10-change:
                         energy  eigst   dens
iter:   1 19:16:23   -19.698855
iter:   2 19:16:30   -19.699461  -1.22  -1.23
iter:   3 19:16:38   -19.361350  -1.56  -1.26
iter:   4 19:16:45   -19.362992  -2.04  -1.65
iter:   5 19:16:53   -19.364532c -3.22  -1.81
iter:   6 19:17:00   -19.354101  -2.55  -1.93
iter:   7 19:17:08   -19.354140  -3.59  -2.12
iter:   8 19:17:15   -19.353874c -4.92c -2.63
iter:   9 19:17:23   -19.353639c -4.14c -2.67
iter:  10 19:17:30   -19.353774c -4.28c -2.99
iter:  11 19:17:37   -19.353727c -5.81c -3.40c

Converged after 11 iterations.

Dipole moment: (-0.000000, -0.000000, -0.000000) |e|*Ang

Energy contributions relative to reference atoms: (reference = -8163.409205)

Kinetic:        +20.296650
Potential:      -25.384164
External:        +0.000000
XC:             -15.012917
Entropy (-ST):   -0.317011
Local:           +0.905209
--------------------------
Free energy:    -19.512232
Extrapolated:   -19.353727

Showing only first 2 kpts
 Kpt  Band  Eigenvalues  Occupancy
  0    10     -2.05526    1.97825
  0    11     -1.43127    0.30126
  0    12     -1.36705    0.17068
  0    13     -1.35268    0.14955

  1    10     -1.98949    1.95843
  1    11     -1.52848    0.63834
  1    12     -1.34656    0.14130
  1    13     -1.30012    0.09120


Fermi level: -1.60424

No gap
Writing to /Users/gabrielbirnbaum/PycharmProjects/nanolithia/calculators/O2-mp-12957-PBE-4x4x4-1000.gpw (mode='')

Timing:                              incl.     excl.
-----------------------------------------------------------
Hamiltonian:                         0.181     0.001   0.0% |
 Atomic:                             0.094     0.001   0.0% |
  XC Correction:                     0.093     0.093   0.0% |
 Calculate atomic Hamiltonians:      0.009     0.009   0.0% |
 Communicate:                        0.000     0.000   0.0% |
 Initialize Hamiltonian:             0.000     0.000   0.0% |
 Poisson:                            0.001     0.001   0.0% |
 XC 3D grid:                         0.077     0.077   0.0% |
LCAO initialization:                 3.219     0.012   0.0% |
 LCAO eigensolver:                   0.461     0.001   0.0% |
  Calculate projections:             0.001     0.001   0.0% |
  DenseAtomicCorrection:             0.003     0.003   0.0% |
  Distribute overlap matrix:         0.000     0.000   0.0% |
  Orbital Layouts:                   0.004     0.004   0.0% |
  Potential matrix:                  0.447     0.447   0.1% |
  Sum over cells:                    0.005     0.005   0.0% |
 LCAO to grid:                       2.537     2.537   0.5% |
 Set positions (LCAO WFS):           0.209     0.025   0.0% |
  Basic WFS set positions:           0.000     0.000   0.0% |
  Basis functions set positions:     0.000     0.000   0.0% |
  P tci:                             0.078     0.078   0.0% |
  ST tci:                            0.093     0.093   0.0% |
  mktci:                             0.013     0.013   0.0% |
PWDescriptor:                        0.038     0.038   0.0% |
SCF-cycle:                          80.603     0.107   0.0% |
 Davidson:                          70.832     5.025   1.0% |
  Apply H:                          15.845    15.700   3.3% ||
   HMM T:                            0.145     0.145   0.0% |
  Subspace diag:                    16.212     0.022   0.0% |
   calc_h_matrix:                   15.807     0.255   0.1% |
    Apply H:                        15.552    15.416   3.2% ||
     HMM T:                          0.136     0.136   0.0% |
   diagonalize:                      0.063     0.063   0.0% |
   rotate_psi:                       0.319     0.319   0.1% |
  calc. matrices:                   32.936     1.677   0.3% |
   Apply H:                         31.259    30.986   6.4% |--|
    HMM T:                           0.273     0.273   0.1% |
  diagonalize:                       0.233     0.233   0.0% |
  rotate_psi:                        0.581     0.581   0.1% |
 Density:                            7.499     0.000   0.0% |
  Atomic density matrices:           0.025     0.025   0.0% |
  Mix:                               0.379     0.379   0.1% |
  Multipole moments:                 0.001     0.001   0.0% |
  Pseudo density:                    7.094     7.054   1.5% ||
   Symmetrize density:               0.041     0.041   0.0% |
 Hamiltonian:                        2.055     0.032   0.0% |
  Atomic:                            0.986     0.006   0.0% |
   XC Correction:                    0.980     0.980   0.2% |
  Calculate atomic Hamiltonians:     0.137     0.137   0.0% |
  Communicate:                       0.000     0.000   0.0% |
  Poisson:                           0.009     0.009   0.0% |
  XC 3D grid:                        0.891     0.891   0.2% |
 Orthonormalize:                     0.109     0.002   0.0% |
  calc_s_matrix:                     0.011     0.011   0.0% |
  inverse-cholesky:                  0.002     0.002   0.0% |
  projections:                       0.081     0.081   0.0% |
  rotate_psi_s:                      0.013     0.013   0.0% |
Set symmetry:                        0.003     0.003   0.0% |
Other:                             398.720   398.720  82.6% |--------------------------------|
-----------------------------------------------------------
Total:                                       482.765 100.0%

Memory usage: 949.43 MiB
Date: Wed Aug  3 19:17:38 2022
