
  ___ ___ ___ _ _ _  
 |   |   |_  | | | | 
 | | | | | . | | | | 
 |__ |  _|___|_____|  22.1.0
 |___|_|             

User:   gabrielbirnbaum@Gabriels-MacBook-Pro.local
Date:   Wed Jul 20 14:55:02 2022
Arch:   x86_64
Pid:    30164
Python: 3.9.13
gpaw:   /Users/gabrielbirnbaum/PycharmProjects/nanolithia/venv/lib/python3.9/site-packages/gpaw
_gpaw:  /Users/gabrielbirnbaum/PycharmProjects/nanolithia/venv/lib/python3.9/site-packages/
        _gpaw.cpython-39-darwin.so
ase:    /Users/gabrielbirnbaum/PycharmProjects/nanolithia/venv/lib/python3.9/site-packages/ase (version 3.22.1)
numpy:  /Users/gabrielbirnbaum/PycharmProjects/nanolithia/venv/lib/python3.9/site-packages/numpy (version 1.23.0)
scipy:  /Users/gabrielbirnbaum/PycharmProjects/nanolithia/venv/lib/python3.9/site-packages/scipy (version 1.8.1)
libxc:  5.2.3
units:  Angstrom and eV
cores: 1
OpenMP: False
OMP_NUM_THREADS: 1

Input parameters:
  convergence: {density: 0.001,
                eigenstates: 0.0001,
                energy: 0.0002}
  kpts: {gamma: True,
         size: (8, 8, 8)}
  mode: {ecut: 500.0,
         name: pw}
  spinpol: True
  xc: PBE

System changes: positions, numbers, cell, pbc, initial_charges, initial_magmoms 

Initialize ...

Li-setup:
  name: Lithium
  id: 830b4218f175192f93f959cfc0aad614
  Z: 3.0
  valence: 1
  core: 2
  charge: 0.0
  file: /Users/gabrielbirnbaum/dft_learning/DIR/gpaw-setups-0.9.20000/Li.PBE.gz
  compensation charges: gauss, rc=0.33, lmax=2
  cutoffs: 1.91(filt), 2.55(core),
  valence states:
                energy  radius
    2s(1.00)    -2.874   1.058
    2p(0.00)    -1.090   1.058
    *s          24.337   1.058

  Using partial waves for Li as LCAO basis

O-setup:
  name: Oxygen
  id: 32ecd46bf208036f09c70b0ec9a88b78
  Z: 8.0
  valence: 6
  core: 2
  charge: 0.0
  file: /Users/gabrielbirnbaum/dft_learning/DIR/gpaw-setups-0.9.20000/O.PBE.gz
  compensation charges: gauss, rc=0.21, lmax=2
  cutoffs: 1.17(filt), 0.83(core),
  valence states:
                energy  radius
    2s(2.00)   -23.961   0.688
    2p(4.00)    -9.029   0.598
    *s           3.251   0.688
    *p          18.182   0.598
    *d           0.000   0.619

  Using partial waves for O as LCAO basis

Reference energy: -8366.197025

Spin-polarized calculation.
Magnetic moment: 0.000000

Convergence criteria:
 Maximum [total energy] change in last 3 cyles: 0.0002 eV / electron
 Maximum integral of absolute [dens]ity change: 0.001 electrons / valence electron
 Maximum integral of absolute [eigenst]ate change: 0.0001 eV^2 / valence electron
 Maximum number of scf [iter]ations: 333
 (Square brackets indicate name in SCF output, whereas a 'c' in
 the SCF output indicates the quantity has converged.)

Symmetries present (total): 6

  ( 1  0  0)  ( 1  0  0)  ( 0  0  1)  ( 0  0  1)  ( 0 -1  0)  ( 0 -1  0)
  ( 0  1  0)  ( 0  0 -1)  ( 0  1  0)  (-1  0  0)  ( 0  0 -1)  (-1  0  0)
  ( 0  0  1)  ( 0 -1  0)  ( 1  0  0)  ( 0 -1  0)  ( 1  0  0)  ( 0  0  1)

512 k-points: 8 x 8 x 8 Monkhorst-Pack grid + [1/16,1/16,1/16]
65 k-points in the irreducible part of the Brillouin zone
       k-points in crystal coordinates                weights
   0:     0.00000000    0.00000000    0.00000000          1/512
   1:     0.12500000   -0.12500000    0.12500000          2/512
   2:     0.12500000    0.00000000    0.00000000          6/512
   3:     0.12500000    0.00000000    0.12500000          6/512
   4:     0.12500000    0.12500000    0.00000000          6/512
   5:     0.12500000    0.12500000    0.12500000          6/512
   6:     0.25000000   -0.25000000    0.25000000          2/512
   7:     0.25000000   -0.12500000    0.12500000          6/512
   8:     0.25000000   -0.12500000    0.25000000          6/512
   9:     0.25000000    0.00000000    0.00000000          6/512
          ...
  64:     0.50000000    0.50000000    0.50000000          1/512

Wave functions: Plane wave expansion
  Cutoff energy: 500.000 eV
  Number of coefficients (min, max): 2512, 2612
  Pulay-stress correction: 0.000000 eV/Ang^3 (de/decut=0.000000)
  Using Numpy's FFT
  ScaLapack parameters: grid=1x1, blocksize=None
  Wavefunction extrapolation:
    Improved wavefunction reuse through dual PAW basis 

Occupation numbers: Fermi-Dirac: width=0.1000 eV
 

Eigensolver
   Davidson(niter=2) 

Densities:
  Coarse grid: 25*25*25 grid
  Fine grid: 50*50*50 grid
  Total Charge: 0.000000 

Density mixing:
  Method: difference
  Backend: pulay
  Linear mixing parameter: 0.05
  Mixing with 5 old densities
  Damping of long wave oscillations: 50 

Hamiltonian:
  XC and Coulomb potentials evaluated on a 50*50*50 grid
  Using the PBE Exchange-Correlation functional
  External potential:
    NoExternalPotential
 

XC parameters: PBE with 2 nearest neighbor stencil

Memory estimate:
  Process memory now: 981.69 MiB
  Calculator: 138.83 MiB
    Density: 9.23 MiB
      Arrays: 4.17 MiB
      Localized functions: 3.39 MiB
      Mixer: 1.67 MiB
    Hamiltonian: 3.18 MiB
      Arrays: 3.10 MiB
      XC: 0.00 MiB
      Poisson: 0.00 MiB
      vbar: 0.08 MiB
    Wavefunctions: 126.41 MiB
      Arrays psit_nG: 98.44 MiB
      Eigensolver: 1.01 MiB
      Projections: 2.15 MiB
      Projectors: 21.62 MiB
      PW-descriptor: 3.19 MiB

Total number of cores used: 1

Number of atoms: 5
Number of atomic orbitals: 20
Number of bands in calculation: 19
Number of valence electrons: 25
Bands to converge: occupied

... initialized

Initializing position-dependent things.

Density initialized from atomic densities
Creating initial wave functions:
  19 bands from LCAO basis set

    .----------.  
   /|          |  
  / |          |  
 *  |          |  
 | O|     Li   |  
 |  |          |  
 |  .--O-------.  
 | /    O     /   
 |/          /    
 O----------*     

Positions:
   0 Li     3.494131    1.164710    3.494131    ( 0.0000,  0.0000,  0.0000)
   1 O      0.000000    0.000000    0.000000    ( 0.0000,  0.0000,  0.0000)
   2 O      0.000000    2.329421    2.329421    ( 0.0000,  0.0000,  0.0000)
   3 O      2.329421    0.000000    2.329421    ( 0.0000,  0.0000,  0.0000)
   4 O      2.329421    2.329421    0.000000    ( 0.0000,  0.0000,  0.0000)

Unit cell:
           periodic     x           y           z      points  spacing
  1. axis:    yes    4.658842    0.000000    0.000000    25     0.1864
  2. axis:    yes    0.000000    4.658842    0.000000    25     0.1864
  3. axis:    yes    0.000000    0.000000    4.658842    25     0.1864

  Lengths:   4.658842   4.658842   4.658842
  Angles:   90.000000  90.000000  90.000000

Effective grid spacing dv^(1/3) = 0.1864

     iter     time        total  log10-change:  magmom
                         energy  eigst   dens
iter:   1 14:55:59   -10.246245                  +0.0000
iter:   2 14:56:22   -10.181792  -2.35  -1.08    +0.0000
iter:   3 14:56:48    -9.886957  -2.17  -1.12    -0.0000
iter:   4 14:57:13    -9.887377  -3.59  -1.58    +0.0000
iter:   5 14:57:40    -9.880912  -4.48c -1.76    -0.0000
iter:   6 14:58:04    -9.912687  -2.88  -1.89    +0.0000
iter:   7 14:58:23    -9.894894  -4.26c -1.51    -0.0000
iter:   8 14:58:44    -9.889612  -4.07c -1.73    -0.0000
iter:   9 14:59:05    -9.891634  -4.26c -2.16    -0.0000
iter:  10 14:59:25    -9.891636c -5.64c -3.50c   -0.0000

Converged after 10 iterations.

Dipole moment: (0.726207, -0.726207, 0.726207) |e|*Ang

Total magnetic moment: (0.000000, 0.000000, -0.000000)
Local magnetic moments:
   0 Li ( 0.000000,  0.000000, -0.000000)
   1 O  ( 0.000000,  0.000000, -0.000000)
   2 O  ( 0.000000,  0.000000, -0.000000)
   3 O  ( 0.000000,  0.000000, -0.000000)
   4 O  ( 0.000000,  0.000000, -0.000000)

Energy contributions relative to reference atoms: (reference = -8366.197025)

Kinetic:         -4.176973
Potential:       +0.746003
External:        +0.000000
XC:              -6.324076
Entropy (-ST):   -0.698688
Local:           +0.212754
--------------------------
Free energy:    -10.240980
Extrapolated:    -9.891636

Spin contamination: 0.000000 electrons
Showing only first 2 kpts
                      Up                     Down
 Kpt  Band  Eigenvalues  Occupancy  Eigenvalues  Occupancy
  0    10     -4.76706    0.73886     -4.76706    0.73886
  0    11     -4.76706    0.73886     -4.76706    0.73886
  0    12     -4.76635    0.73749     -4.76635    0.73749
  0    13     -4.36687    0.04918     -4.36687    0.04918

  1    10     -4.80642    0.80747     -4.80642    0.80747
  1    11     -4.80642    0.80747     -4.80642    0.80747
  1    12     -4.73209    0.66605     -4.73209    0.66605
  1    13     -4.62032    0.39475     -4.62032    0.39475


Fermi level: -4.66305

No gap
Timing:                              incl.     excl.
-----------------------------------------------------------
Hamiltonian:                         0.339     0.002   0.0% |
 Atomic:                             0.225     0.001   0.0% |
  XC Correction:                     0.224     0.224   0.1% |
 Calculate atomic Hamiltonians:      0.012     0.012   0.0% |
 Communicate:                        0.000     0.000   0.0% |
 Initialize Hamiltonian:             0.000     0.000   0.0% |
 Poisson:                            0.000     0.000   0.0% |
 XC 3D grid:                         0.099     0.099   0.0% |
LCAO initialization:                34.366     0.102   0.0% |
 LCAO eigensolver:                  26.041     0.007   0.0% |
  Calculate projections:             0.012     0.012   0.0% |
  DenseAtomicCorrection:             0.023     0.023   0.0% |
  Distribute overlap matrix:         0.003     0.003   0.0% |
  Orbital Layouts:                   0.044     0.044   0.0% |
  Potential matrix:                 25.889    25.889   9.8% |---|
  Sum over cells:                    0.063     0.063   0.0% |
 LCAO to grid:                       7.543     7.543   2.9% ||
 Set positions (LCAO WFS):           0.680     0.066   0.0% |
  Basic WFS set positions:           0.001     0.001   0.0% |
  Basis functions set positions:     0.000     0.000   0.0% |
  P tci:                             0.297     0.297   0.1% |
  ST tci:                            0.300     0.300   0.1% |
  mktci:                             0.015     0.015   0.0% |
PWDescriptor:                        0.030     0.030   0.0% |
SCF-cycle:                         227.030     0.251   0.1% |
 Davidson:                         206.172    19.280   7.3% |--|
  Apply H:                          38.089    37.083  14.1% |-----|
   HMM T:                            1.006     1.006   0.4% |
  Subspace diag:                    59.877     0.096   0.0% |
   calc_h_matrix:                   58.567     1.115   0.4% |
    Apply H:                        57.452    56.890  21.6% |--------|
     HMM T:                          0.562     0.562   0.2% |
   diagonalize:                      0.303     0.303   0.1% |
   rotate_psi:                       0.911     0.911   0.3% |
  calc. matrices:                   85.849    11.722   4.5% |-|
   Apply H:                         74.127    72.914  27.7% |----------|
    HMM T:                           1.213     1.213   0.5% |
  diagonalize:                       1.371     1.371   0.5% |
  rotate_psi:                        1.706     1.706   0.6% |
 Density:                           17.081     0.000   0.0% |
  Atomic density matrices:           0.110     0.110   0.0% |
  Mix:                               0.330     0.330   0.1% |
  Multipole moments:                 0.001     0.001   0.0% |
  Pseudo density:                   16.640    16.593   6.3% |--|
   Symmetrize density:               0.047     0.047   0.0% |
 Hamiltonian:                        2.830     0.019   0.0% |
  Atomic:                            1.767     0.007   0.0% |
   XC Correction:                    1.760     1.760   0.7% |
  Calculate atomic Hamiltonians:     0.076     0.076   0.0% |
  Communicate:                       0.000     0.000   0.0% |
  Poisson:                           0.005     0.005   0.0% |
  XC 3D grid:                        0.964     0.964   0.4% |
 Orthonormalize:                     0.696     0.010   0.0% |
  calc_s_matrix:                     0.398     0.398   0.2% |
  inverse-cholesky:                  0.012     0.012   0.0% |
  projections:                       0.231     0.231   0.1% |
  rotate_psi_s:                      0.045     0.045   0.0% |
Set symmetry:                        0.017     0.017   0.0% |
Other:                               1.202     1.202   0.5% |
-----------------------------------------------------------
Total:                                       262.984 100.0%

Memory usage: 1009.60 MiB
Date: Wed Jul 20 14:59:25 2022
