
  ___ ___ ___ _ _ _  
 |   |   |_  | | | | 
 | | | | | . | | | | 
 |__ |  _|___|_____|  22.1.0
 |___|_|             

User:   gabrielbirnbaum@Gabriels-MacBook-Pro.local
Date:   Wed Jul 20 14:45:48 2022
Arch:   x86_64
Pid:    30164
Python: 3.9.13
gpaw:   /Users/gabrielbirnbaum/PycharmProjects/nanolithia/venv/lib/python3.9/site-packages/gpaw
_gpaw:  /Users/gabrielbirnbaum/PycharmProjects/nanolithia/venv/lib/python3.9/site-packages/
        _gpaw.cpython-39-darwin.so
ase:    /Users/gabrielbirnbaum/PycharmProjects/nanolithia/venv/lib/python3.9/site-packages/ase (version 3.22.1)
numpy:  /Users/gabrielbirnbaum/PycharmProjects/nanolithia/venv/lib/python3.9/site-packages/numpy (version 1.23.0)
scipy:  /Users/gabrielbirnbaum/PycharmProjects/nanolithia/venv/lib/python3.9/site-packages/scipy (version 1.8.1)
libxc:  5.2.3
units:  Angstrom and eV
cores: 1
OpenMP: False
OMP_NUM_THREADS: 1

Input parameters:
  convergence: {density: 0.001,
                eigenstates: 0.0001,
                energy: 0.0002}
  kpts: {gamma: True,
         size: (8, 8, 8)}
  mode: {ecut: 500.0,
         name: pw}
  spinpol: True
  xc: PBE

System changes: positions, numbers, cell, pbc, initial_charges, initial_magmoms 

Initialize ...

Li-setup:
  name: Lithium
  id: 830b4218f175192f93f959cfc0aad614
  Z: 3.0
  valence: 1
  core: 2
  charge: 0.0
  file: /Users/gabrielbirnbaum/dft_learning/DIR/gpaw-setups-0.9.20000/Li.PBE.gz
  compensation charges: gauss, rc=0.33, lmax=2
  cutoffs: 1.91(filt), 2.55(core),
  valence states:
                energy  radius
    2s(1.00)    -2.874   1.058
    2p(0.00)    -1.090   1.058
    *s          24.337   1.058

  Using partial waves for Li as LCAO basis

O-setup:
  name: Oxygen
  id: 32ecd46bf208036f09c70b0ec9a88b78
  Z: 8.0
  valence: 6
  core: 2
  charge: 0.0
  file: /Users/gabrielbirnbaum/dft_learning/DIR/gpaw-setups-0.9.20000/O.PBE.gz
  compensation charges: gauss, rc=0.21, lmax=2
  cutoffs: 1.17(filt), 0.83(core),
  valence states:
                energy  radius
    2s(2.00)   -23.961   0.688
    2p(4.00)    -9.029   0.598
    *s           3.251   0.688
    *p          18.182   0.598
    *d           0.000   0.619

  Using partial waves for O as LCAO basis

Reference energy: -8568.984845

Spin-polarized calculation.
Magnetic moment: 0.000000

Convergence criteria:
 Maximum [total energy] change in last 3 cyles: 0.0002 eV / electron
 Maximum integral of absolute [dens]ity change: 0.001 electrons / valence electron
 Maximum integral of absolute [eigenst]ate change: 0.0001 eV^2 / valence electron
 Maximum number of scf [iter]ations: 333
 (Square brackets indicate name in SCF output, whereas a 'c' in
 the SCF output indicates the quantity has converged.)

Symmetries present (total): 4

  ( 1  0  0)  ( 1  0  0)  ( 0  0  1)  ( 0  0  1)
  ( 0  1  0)  ( 0 -1  0)  ( 0  1  0)  ( 0 -1  0)
  ( 0  0  1)  ( 0  0  1)  ( 1  0  0)  ( 1  0  0)

512 k-points: 8 x 8 x 8 Monkhorst-Pack grid + [1/16,1/16,1/16]
105 k-points in the irreducible part of the Brillouin zone
       k-points in crystal coordinates                weights
   0:     0.00000000    0.00000000    0.00000000          1/512
   1:     0.00000000    0.12500000    0.00000000          2/512
   2:     0.00000000    0.25000000    0.00000000          2/512
   3:     0.00000000    0.37500000    0.00000000          2/512
   4:     0.00000000    0.50000000    0.00000000          1/512
   5:     0.12500000    0.00000000   -0.12500000          2/512
   6:     0.12500000    0.00000000    0.00000000          4/512
   7:     0.12500000    0.00000000    0.12500000          2/512
   8:     0.12500000    0.12500000   -0.12500000          4/512
   9:     0.12500000    0.12500000    0.00000000          8/512
          ...
 104:     0.50000000    0.50000000    0.50000000          1/512

Wave functions: Plane wave expansion
  Cutoff energy: 500.000 eV
  Number of coefficients (min, max): 2512, 2612
  Pulay-stress correction: 0.000000 eV/Ang^3 (de/decut=0.000000)
  Using Numpy's FFT
  ScaLapack parameters: grid=1x1, blocksize=None
  Wavefunction extrapolation:
    Improved wavefunction reuse through dual PAW basis 

Occupation numbers: Fermi-Dirac: width=0.1000 eV
 

Eigensolver
   Davidson(niter=2) 

Densities:
  Coarse grid: 25*25*25 grid
  Fine grid: 50*50*50 grid
  Total Charge: 0.000000 

Density mixing:
  Method: difference
  Backend: pulay
  Linear mixing parameter: 0.05
  Mixing with 5 old densities
  Damping of long wave oscillations: 50 

Hamiltonian:
  XC and Coulomb potentials evaluated on a 50*50*50 grid
  Using the PBE Exchange-Correlation functional
  External potential:
    NoExternalPotential
 

XC parameters: PBE with 2 nearest neighbor stencil

Memory estimate:
  Process memory now: 917.87 MiB
  Calculator: 224.55 MiB
    Density: 9.23 MiB
      Arrays: 4.17 MiB
      Localized functions: 3.39 MiB
      Mixer: 1.67 MiB
    Hamiltonian: 3.18 MiB
      Arrays: 3.10 MiB
      XC: 0.00 MiB
      Poisson: 0.00 MiB
      vbar: 0.08 MiB
    Wavefunctions: 212.13 MiB
      Arrays psit_nG: 167.40 MiB
      Eigensolver: 1.06 MiB
      Projections: 3.97 MiB
      Projectors: 34.93 MiB
      PW-descriptor: 4.78 MiB

Total number of cores used: 1

Number of atoms: 6
Number of atomic orbitals: 24
Number of bands in calculation: 20
Number of valence electrons: 26
Bands to converge: occupied

... initialized

Initializing position-dependent things.

Density initialized from atomic densities
Creating initial wave functions:
  20 bands from LCAO basis set

    .----------.  
   /|          |  
  / |      Li  |  
 *  |          |  
 | O|     Li   |  
 |  |          |  
 |  .--O-------.  
 | /    O     /   
 |/          /    
 O----------*     

Positions:
   0 Li     3.494131    3.494131    3.494131    ( 0.0000,  0.0000,  0.0000)
   1 Li     3.494131    1.164710    3.494131    ( 0.0000,  0.0000,  0.0000)
   2 O      0.000000    0.000000    0.000000    ( 0.0000,  0.0000,  0.0000)
   3 O      0.000000    2.329421    2.329421    ( 0.0000,  0.0000,  0.0000)
   4 O      2.329421    0.000000    2.329421    ( 0.0000,  0.0000,  0.0000)
   5 O      2.329421    2.329421    0.000000    ( 0.0000,  0.0000,  0.0000)

Unit cell:
           periodic     x           y           z      points  spacing
  1. axis:    yes    4.658842    0.000000    0.000000    25     0.1864
  2. axis:    yes    0.000000    4.658842    0.000000    25     0.1864
  3. axis:    yes    0.000000    0.000000    4.658842    25     0.1864

  Lengths:   4.658842   4.658842   4.658842
  Angles:   90.000000  90.000000  90.000000

Effective grid spacing dv^(1/3) = 0.1864

     iter     time        total  log10-change:  magmom
                         energy  eigst   dens
iter:   1 14:47:35   -17.272772                  +0.0000
iter:   2 14:48:06   -17.175091  -1.97  -0.98    +0.0000
iter:   3 14:48:44   -16.730849  -1.99  -1.02    +0.0000
iter:   4 14:49:22   -16.739789  -3.77  -1.59    +0.0000
iter:   5 14:49:58   -16.742010  -3.25  -1.61    +0.0000
iter:   6 14:50:36   -16.748099  -3.19  -1.74    +0.0000
iter:   7 14:51:16   -16.749534  -4.46c -2.04    +0.0000
iter:   8 14:51:54   -16.751355c -5.24c -2.07    +0.0000
iter:   9 14:52:30   -16.755743  -4.36c -2.10    +0.0000
iter:  10 14:53:08   -16.755682c -5.89c -2.64    +0.0000
iter:  11 14:53:46   -16.755175c -5.22c -2.69    -0.0000
iter:  12 14:54:25   -16.754979c -5.61c -2.76    +0.0000
iter:  13 14:55:02   -16.754985c -6.80c -3.26c   -0.0000

Converged after 13 iterations.

Dipole moment: (1.400648, 0.000000, 1.400648) |e|*Ang

Total magnetic moment: (0.000000, 0.000000, -0.000000)
Local magnetic moments:
   0 Li ( 0.000000,  0.000000, -0.000000)
   1 Li ( 0.000000,  0.000000, -0.000000)
   2 O  ( 0.000000,  0.000000, -0.000000)
   3 O  ( 0.000000,  0.000000,  0.000000)
   4 O  ( 0.000000,  0.000000, -0.000000)
   5 O  ( 0.000000,  0.000000,  0.000000)

Energy contributions relative to reference atoms: (reference = -8568.984845)

Kinetic:         +4.647591
Potential:       -6.772221
External:        +0.000000
XC:             -14.522332
Entropy (-ST):   -0.614158
Local:           +0.199056
--------------------------
Free energy:    -17.062064
Extrapolated:   -16.754985

Spin contamination: 0.000000 electrons
Showing only first 2 kpts
                      Up                     Down
 Kpt  Band  Eigenvalues  Occupancy  Eigenvalues  Occupancy
  0    11     -4.06444    0.95302     -4.06444    0.95302
  0    12     -3.85898    0.72218     -3.85898    0.72218
  0    13     -3.46818    0.04961     -3.46818    0.04961
  0    14     -3.45737    0.04475     -3.45737    0.04475

  1    11     -4.02659    0.93286     -4.02659    0.93286
  1    12     -3.90450    0.80384     -3.90450    0.80384
  1    13     -3.52933    0.08777     -3.52933    0.08777
  1    14     -3.46523    0.04824     -3.46523    0.04824


Fermi level: -3.76345

No gap
Timing:                              incl.     excl.
-----------------------------------------------------------
Hamiltonian:                         0.349     0.001   0.0% |
 Atomic:                             0.231     0.001   0.0% |
  XC Correction:                     0.230     0.230   0.0% |
 Calculate atomic Hamiltonians:      0.012     0.012   0.0% |
 Communicate:                        0.000     0.000   0.0% |
 Initialize Hamiltonian:             0.000     0.000   0.0% |
 Poisson:                            0.000     0.000   0.0% |
 XC 3D grid:                         0.104     0.104   0.0% |
LCAO initialization:                72.252     0.044   0.0% |
 LCAO eigensolver:                  58.807     0.010   0.0% |
  Calculate projections:             0.012     0.012   0.0% |
  DenseAtomicCorrection:             0.036     0.036   0.0% |
  Distribute overlap matrix:         0.005     0.005   0.0% |
  Orbital Layouts:                   0.090     0.090   0.0% |
  Potential matrix:                 58.565    58.565  10.6% |---|
  Sum over cells:                    0.089     0.089   0.0% |
 LCAO to grid:                      12.209    12.209   2.2% ||
 Set positions (LCAO WFS):           1.193     0.137   0.0% |
  Basic WFS set positions:           0.001     0.001   0.0% |
  Basis functions set positions:     0.000     0.000   0.0% |
  P tci:                             0.557     0.557   0.1% |
  ST tci:                            0.480     0.480   0.1% |
  mktci:                             0.018     0.018   0.0% |
PWDescriptor:                        0.158     0.158   0.0% |
SCF-cycle:                         480.212     0.591   0.1% |
 Davidson:                         431.351    39.037   7.0% |--|
  Apply H:                         103.262    99.541  18.0% |------|
   HMM T:                            3.722     3.722   0.7% |
  Subspace diag:                    97.591     0.221   0.0% |
   calc_h_matrix:                   94.517     2.197   0.4% |
    Apply H:                        92.319    90.731  16.4% |------|
     HMM T:                          1.589     1.589   0.3% |
   diagonalize:                      0.742     0.742   0.1% |
   rotate_psi:                       2.112     2.112   0.4% |
  calc. matrices:                  184.240    11.891   2.1% ||
   Apply H:                        172.349   169.758  30.6% |-----------|
    HMM T:                           2.591     2.591   0.5% |
  diagonalize:                       3.369     3.369   0.6% |
  rotate_psi:                        3.852     3.852   0.7% |
 Density:                           43.057     0.000   0.0% |
  Atomic density matrices:           0.289     0.289   0.1% |
  Mix:                               0.515     0.515   0.1% |
  Multipole moments:                 0.002     0.002   0.0% |
  Pseudo density:                   42.251    42.215   7.6% |--|
   Symmetrize density:               0.036     0.036   0.0% |
 Hamiltonian:                        4.232     0.029   0.0% |
  Atomic:                            2.801     0.011   0.0% |
   XC Correction:                    2.789     2.789   0.5% |
  Calculate atomic Hamiltonians:     0.172     0.172   0.0% |
  Communicate:                       0.000     0.000   0.0% |
  Poisson:                           0.007     0.007   0.0% |
  XC 3D grid:                        1.224     1.224   0.2% |
 Orthonormalize:                     0.981     0.017   0.0% |
  calc_s_matrix:                     0.433     0.433   0.1% |
  inverse-cholesky:                  0.020     0.020   0.0% |
  projections:                       0.428     0.428   0.1% |
  rotate_psi_s:                      0.083     0.083   0.0% |
Set symmetry:                        0.015     0.015   0.0% |
Other:                               1.538     1.538   0.3% |
-----------------------------------------------------------
Total:                                       554.524 100.0%

Memory usage: 981.65 MiB
Date: Wed Jul 20 14:55:03 2022
