
  ___ ___ ___ _ _ _  
 |   |   |_  | | | | 
 | | | | | . | | | | 
 |__ |  _|___|_____|  22.1.0
 |___|_|             

User:   gabrielbirnbaum@Gabriels-MacBook-Pro.local
Date:   Wed Jul 20 14:23:14 2022
Arch:   x86_64
Pid:    30164
Python: 3.9.13
gpaw:   /Users/gabrielbirnbaum/PycharmProjects/nanolithia/venv/lib/python3.9/site-packages/gpaw
_gpaw:  /Users/gabrielbirnbaum/PycharmProjects/nanolithia/venv/lib/python3.9/site-packages/
        _gpaw.cpython-39-darwin.so
ase:    /Users/gabrielbirnbaum/PycharmProjects/nanolithia/venv/lib/python3.9/site-packages/ase (version 3.22.1)
numpy:  /Users/gabrielbirnbaum/PycharmProjects/nanolithia/venv/lib/python3.9/site-packages/numpy (version 1.23.0)
scipy:  /Users/gabrielbirnbaum/PycharmProjects/nanolithia/venv/lib/python3.9/site-packages/scipy (version 1.8.1)
libxc:  5.2.3
units:  Angstrom and eV
cores: 1
OpenMP: False
OMP_NUM_THREADS: 1

Input parameters:
  convergence: {density: 0.001,
                eigenstates: 0.0001,
                energy: 0.0002}
  kpts: {gamma: True,
         size: (8, 8, 8)}
  mode: {ecut: 500.0,
         name: pw}
  spinpol: True
  xc: PBE

System changes: positions, numbers, cell, pbc, initial_charges, initial_magmoms 

Initialize ...

Li-setup:
  name: Lithium
  id: 830b4218f175192f93f959cfc0aad614
  Z: 3.0
  valence: 1
  core: 2
  charge: 0.0
  file: /Users/gabrielbirnbaum/dft_learning/DIR/gpaw-setups-0.9.20000/Li.PBE.gz
  compensation charges: gauss, rc=0.33, lmax=2
  cutoffs: 1.91(filt), 2.55(core),
  valence states:
                energy  radius
    2s(1.00)    -2.874   1.058
    2p(0.00)    -1.090   1.058
    *s          24.337   1.058

  Using partial waves for Li as LCAO basis

O-setup:
  name: Oxygen
  id: 32ecd46bf208036f09c70b0ec9a88b78
  Z: 8.0
  valence: 6
  core: 2
  charge: 0.0
  file: /Users/gabrielbirnbaum/dft_learning/DIR/gpaw-setups-0.9.20000/O.PBE.gz
  compensation charges: gauss, rc=0.21, lmax=2
  cutoffs: 1.17(filt), 0.83(core),
  valence states:
                energy  radius
    2s(2.00)   -23.961   0.688
    2p(4.00)    -9.029   0.598
    *s           3.251   0.688
    *p          18.182   0.598
    *d           0.000   0.619

  Using partial waves for O as LCAO basis

Reference energy: -8974.560486

Spin-polarized calculation.
Magnetic moment: 0.000000

Convergence criteria:
 Maximum [total energy] change in last 3 cyles: 0.0002 eV / electron
 Maximum integral of absolute [dens]ity change: 0.001 electrons / valence electron
 Maximum integral of absolute [eigenst]ate change: 0.0001 eV^2 / valence electron
 Maximum number of scf [iter]ations: 333
 (Square brackets indicate name in SCF output, whereas a 'c' in
 the SCF output indicates the quantity has converged.)

Symmetries present (total): 8

  ( 1  0  0)  ( 1  0  0)  ( 1  0  0)  ( 1  0  0)  ( 1  0  0)  ( 1  0  0)
  ( 0  1  0)  ( 0  1  0)  ( 0  0  1)  ( 0  0  1)  ( 0  0 -1)  ( 0  0 -1)
  ( 0  0  1)  ( 0  0 -1)  ( 0  1  0)  ( 0 -1  0)  ( 0  1  0)  ( 0 -1  0)

  ( 1  0  0)  ( 1  0  0)
  ( 0 -1  0)  ( 0 -1  0)
  ( 0  0  1)  ( 0  0 -1)

512 k-points: 8 x 8 x 8 Monkhorst-Pack grid + [1/16,1/16,1/16]
75 k-points in the irreducible part of the Brillouin zone
       k-points in crystal coordinates                weights
   0:     0.00000000    0.00000000    0.00000000          1/512
   1:     0.00000000    0.12500000    0.00000000          4/512
   2:     0.00000000    0.12500000    0.12500000          4/512
   3:     0.00000000    0.25000000    0.00000000          4/512
   4:     0.00000000    0.25000000    0.12500000          8/512
   5:     0.00000000    0.25000000    0.25000000          4/512
   6:     0.00000000    0.37500000    0.00000000          4/512
   7:     0.00000000    0.37500000    0.12500000          8/512
   8:     0.00000000    0.37500000    0.25000000          8/512
   9:     0.00000000    0.37500000    0.37500000          4/512
          ...
  74:     0.50000000    0.50000000    0.50000000          1/512

Wave functions: Plane wave expansion
  Cutoff energy: 500.000 eV
  Number of coefficients (min, max): 2512, 2612
  Pulay-stress correction: 0.000000 eV/Ang^3 (de/decut=0.000000)
  Using Numpy's FFT
  ScaLapack parameters: grid=1x1, blocksize=None
  Wavefunction extrapolation:
    Improved wavefunction reuse through dual PAW basis 

Occupation numbers: Fermi-Dirac: width=0.1000 eV
 

Eigensolver
   Davidson(niter=2) 

Densities:
  Coarse grid: 25*25*25 grid
  Fine grid: 50*50*50 grid
  Total Charge: 0.000000 

Density mixing:
  Method: difference
  Backend: pulay
  Linear mixing parameter: 0.05
  Mixing with 5 old densities
  Damping of long wave oscillations: 50 

Hamiltonian:
  XC and Coulomb potentials evaluated on a 50*50*50 grid
  Using the PBE Exchange-Correlation functional
  External potential:
    NoExternalPotential
 

XC parameters: PBE with 2 nearest neighbor stencil

Memory estimate:
  Process memory now: 917.87 MiB
  Calculator: 171.05 MiB
    Density: 9.23 MiB
      Arrays: 4.17 MiB
      Localized functions: 3.39 MiB
      Mixer: 1.67 MiB
    Hamiltonian: 3.18 MiB
      Arrays: 3.10 MiB
      XC: 0.00 MiB
      Poisson: 0.00 MiB
      vbar: 0.08 MiB
    Wavefunctions: 158.63 MiB
      Arrays psit_nG: 125.55 MiB
      Eigensolver: 1.10 MiB
      Projections: 3.46 MiB
      Projectors: 24.94 MiB
      PW-descriptor: 3.59 MiB

Total number of cores used: 1

Number of atoms: 8
Number of atomic orbitals: 32
Number of bands in calculation: 21
Number of valence electrons: 28
Bands to converge: occupied

... initialized

Initializing position-dependent things.

Density initialized from atomic densities
Creating initial wave functions:
  21 bands from LCAO basis set

    .----------.  
   /|          |  
  / |      Li  |  
 *  |          |  
 | O|     Li   |  
 |  |      Li  |  
 |  .--O-------.  
 | /    O Li  /   
 |/          /    
 O----------*     

Positions:
   0 Li     3.494131    1.164710    1.164710    ( 0.0000,  0.0000,  0.0000)
   1 Li     3.494131    3.494131    1.164710    ( 0.0000,  0.0000,  0.0000)
   2 Li     3.494131    3.494131    3.494131    ( 0.0000,  0.0000,  0.0000)
   3 Li     3.494131    1.164710    3.494131    ( 0.0000,  0.0000,  0.0000)
   4 O      0.000000    0.000000    0.000000    ( 0.0000,  0.0000,  0.0000)
   5 O      0.000000    2.329421    2.329421    ( 0.0000,  0.0000,  0.0000)
   6 O      2.329421    0.000000    2.329421    ( 0.0000,  0.0000,  0.0000)
   7 O      2.329421    2.329421    0.000000    ( 0.0000,  0.0000,  0.0000)

Unit cell:
           periodic     x           y           z      points  spacing
  1. axis:    yes    4.658842    0.000000    0.000000    25     0.1864
  2. axis:    yes    0.000000    4.658842    0.000000    25     0.1864
  3. axis:    yes    0.000000    0.000000    4.658842    25     0.1864

  Lengths:   4.658842   4.658842   4.658842
  Angles:   90.000000  90.000000  90.000000

Effective grid spacing dv^(1/3) = 0.1864

     iter     time        total  log10-change:  magmom
                         energy  eigst   dens
iter:   1 14:24:54   -30.297248                  +0.0000
iter:   2 14:25:22   -30.196811  -1.73  -1.06    -0.0000
iter:   3 14:25:49   -29.811072  -1.96  -1.09    -0.0000
iter:   4 14:26:15   -29.735280  -1.94  -1.26    -0.0000
iter:   5 14:26:42   -29.738462  -3.24  -1.44    -0.0000
iter:   6 14:27:09   -29.772023  -2.37  -1.55    -0.0000
iter:   7 14:27:35   -29.768206  -4.24c -2.09    -0.0000
iter:   8 14:28:00   -29.765690  -3.94  -2.14    +0.0000
iter:   9 14:28:27   -29.766681c -4.82c -2.23    -0.0000
iter:  10 14:28:55   -29.765306c -4.22c -2.33    +0.0000
iter:  11 14:29:23   -29.765182c -4.23c -2.54    -0.0000
iter:  12 14:29:50   -29.764857c -5.27c -2.70    +0.0000
iter:  13 14:30:17   -29.764783c -5.95c -2.71    -0.0000
iter:  14 14:30:42   -29.764615c -5.52c -2.76    +0.0000
iter:  15 14:31:09   -29.764680c -6.19c -2.78    -0.0000
iter:  16 14:31:34   -29.764738c -6.66c -2.83    -0.0000
iter:  17 14:31:59   -29.764853c -5.83c -2.88    -0.0000
iter:  18 14:32:23   -29.765052c -5.72c -2.93    -0.0000
iter:  19 14:32:47   -29.765066c -6.89c -3.28c   -0.0000

Converged after 19 iterations.

Dipole moment: (2.615984, 0.000000, 0.000000) |e|*Ang

Total magnetic moment: (0.000000, 0.000000, -0.000000)
Local magnetic moments:
   0 Li ( 0.000000,  0.000000, -0.000000)
   1 Li ( 0.000000,  0.000000, -0.000000)
   2 Li ( 0.000000,  0.000000, -0.000000)
   3 Li ( 0.000000,  0.000000, -0.000000)
   4 O  ( 0.000000,  0.000000, -0.000000)
   5 O  ( 0.000000,  0.000000, -0.000000)
   6 O  ( 0.000000,  0.000000,  0.000000)
   7 O  ( 0.000000,  0.000000,  0.000000)

Energy contributions relative to reference atoms: (reference = -8974.560486)

Kinetic:        +22.267335
Potential:      -21.307275
External:        +0.000000
XC:             -30.658811
Entropy (-ST):   -0.485792
Local:           +0.176581
--------------------------
Free energy:    -30.007962
Extrapolated:   -29.765066

Spin contamination: 0.000000 electrons
Showing only first 2 kpts
                      Up                     Down
 Kpt  Band  Eigenvalues  Occupancy  Eigenvalues  Occupancy
  0    12     -2.61669    0.99412     -2.61669    0.99412
  0    13     -1.82213    0.05654     -1.82213    0.05654
  0    14     -1.82212    0.05654     -1.82212    0.05654
  0    15     -1.79297    0.04285     -1.79297    0.04285

  1    12     -2.53925    0.98734     -2.53925    0.98734
  1    13     -1.89502    0.11051     -1.89502    0.11051
  1    14     -1.84292    0.06871     -1.84292    0.06871
  1    15     -1.80592    0.04849     -1.80592    0.04849


Fermi level: -2.10358

No gap
Timing:                              incl.     excl.
-----------------------------------------------------------
Hamiltonian:                         0.371     0.004   0.0% |
 Atomic:                             0.280     0.001   0.0% |
  XC Correction:                     0.279     0.279   0.0% |
 Calculate atomic Hamiltonians:      0.015     0.015   0.0% |
 Communicate:                        0.000     0.000   0.0% |
 Initialize Hamiltonian:             0.000     0.000   0.0% |
 Poisson:                            0.000     0.000   0.0% |
 XC 3D grid:                         0.071     0.071   0.0% |
LCAO initialization:                76.722     0.045   0.0% |
 LCAO eigensolver:                  62.502     0.007   0.0% |
  Calculate projections:             0.011     0.011   0.0% |
  DenseAtomicCorrection:             0.030     0.030   0.0% |
  Distribute overlap matrix:         0.004     0.004   0.0% |
  Orbital Layouts:                   0.073     0.073   0.0% |
  Potential matrix:                 62.300    62.300  10.9% |---|
  Sum over cells:                    0.078     0.078   0.0% |
 LCAO to grid:                      12.612    12.612   2.2% ||
 Set positions (LCAO WFS):           1.564     0.258   0.0% |
  Basic WFS set positions:           0.002     0.002   0.0% |
  Basis functions set positions:     0.000     0.000   0.0% |
  P tci:                             0.683     0.683   0.1% |
  ST tci:                            0.596     0.596   0.1% |
  mktci:                             0.025     0.025   0.0% |
PWDescriptor:                        0.033     0.033   0.0% |
SCF-cycle:                         494.137     1.139   0.2% |
 Davidson:                         439.762    44.110   7.7% |--|
  Apply H:                          97.843    95.504  16.7% |------|
   HMM T:                            2.339     2.339   0.4% |
  Subspace diag:                    96.296     0.224   0.0% |
   calc_h_matrix:                   92.853     2.392   0.4% |
    Apply H:                        90.460    89.304  15.6% |-----|
     HMM T:                          1.157     1.157   0.2% |
   diagonalize:                      0.812     0.812   0.1% |
   rotate_psi:                       2.407     2.407   0.4% |
  calc. matrices:                  193.454    12.311   2.1% ||
   Apply H:                        181.143   178.034  31.1% |-----------|
    HMM T:                           3.109     3.109   0.5% |
  diagonalize:                       3.483     3.483   0.6% |
  rotate_psi:                        4.576     4.576   0.8% |
 Density:                           45.219     0.000   0.0% |
  Atomic density matrices:           0.392     0.392   0.1% |
  Mix:                               0.764     0.764   0.1% |
  Multipole moments:                 0.004     0.004   0.0% |
  Pseudo density:                   44.060    43.949   7.7% |--|
   Symmetrize density:               0.112     0.112   0.0% |
 Hamiltonian:                        7.354     0.035   0.0% |
  Atomic:                            5.338     0.018   0.0% |
   XC Correction:                    5.320     5.320   0.9% |
  Calculate atomic Hamiltonians:     0.304     0.304   0.1% |
  Communicate:                       0.000     0.000   0.0% |
  Poisson:                           0.010     0.010   0.0% |
  XC 3D grid:                        1.668     1.668   0.3% |
 Orthonormalize:                     0.662     0.011   0.0% |
  calc_s_matrix:                     0.201     0.201   0.0% |
  inverse-cholesky:                  0.013     0.013   0.0% |
  projections:                       0.379     0.379   0.1% |
  rotate_psi_s:                      0.058     0.058   0.0% |
Set symmetry:                        0.018     0.018   0.0% |
Other:                               1.434     1.434   0.3% |
-----------------------------------------------------------
Total:                                       572.714 100.0%

Memory usage: 917.87 MiB
Date: Wed Jul 20 14:32:47 2022
