
  ___ ___ ___ _ _ _  
 |   |   |_  | | | | 
 | | | | | . | | | | 
 |__ |  _|___|_____|  22.1.0
 |___|_|             

User:   gabrielbirnbaum@Gabriels-MacBook-Pro.local
Date:   Wed Jul 20 14:09:51 2022
Arch:   x86_64
Pid:    30164
Python: 3.9.13
gpaw:   /Users/gabrielbirnbaum/PycharmProjects/nanolithia/venv/lib/python3.9/site-packages/gpaw
_gpaw:  /Users/gabrielbirnbaum/PycharmProjects/nanolithia/venv/lib/python3.9/site-packages/
        _gpaw.cpython-39-darwin.so
ase:    /Users/gabrielbirnbaum/PycharmProjects/nanolithia/venv/lib/python3.9/site-packages/ase (version 3.22.1)
numpy:  /Users/gabrielbirnbaum/PycharmProjects/nanolithia/venv/lib/python3.9/site-packages/numpy (version 1.23.0)
scipy:  /Users/gabrielbirnbaum/PycharmProjects/nanolithia/venv/lib/python3.9/site-packages/scipy (version 1.8.1)
libxc:  5.2.3
units:  Angstrom and eV
cores: 1
OpenMP: False
OMP_NUM_THREADS: 1

Input parameters:
  convergence: {density: 0.001,
                eigenstates: 0.0001,
                energy: 0.0002}
  kpts: {gamma: True,
         size: (8, 8, 8)}
  mode: {ecut: 500.0,
         name: pw}
  spinpol: True
  xc: PBE

System changes: positions, numbers, cell, pbc, initial_charges, initial_magmoms 

Initialize ...

Li-setup:
  name: Lithium
  id: 830b4218f175192f93f959cfc0aad614
  Z: 3.0
  valence: 1
  core: 2
  charge: 0.0
  file: /Users/gabrielbirnbaum/dft_learning/DIR/gpaw-setups-0.9.20000/Li.PBE.gz
  compensation charges: gauss, rc=0.33, lmax=2
  cutoffs: 1.91(filt), 2.55(core),
  valence states:
                energy  radius
    2s(1.00)    -2.874   1.058
    2p(0.00)    -1.090   1.058
    *s          24.337   1.058

  Using partial waves for Li as LCAO basis

O-setup:
  name: Oxygen
  id: 32ecd46bf208036f09c70b0ec9a88b78
  Z: 8.0
  valence: 6
  core: 2
  charge: 0.0
  file: /Users/gabrielbirnbaum/dft_learning/DIR/gpaw-setups-0.9.20000/O.PBE.gz
  compensation charges: gauss, rc=0.21, lmax=2
  cutoffs: 1.17(filt), 0.83(core),
  valence states:
                energy  radius
    2s(2.00)   -23.961   0.688
    2p(4.00)    -9.029   0.598
    *s           3.251   0.688
    *p          18.182   0.598
    *d           0.000   0.619

  Using partial waves for O as LCAO basis

Reference energy: -9177.348306

Spin-polarized calculation.
Magnetic moment: 0.000000

Convergence criteria:
 Maximum [total energy] change in last 3 cyles: 0.0002 eV / electron
 Maximum integral of absolute [dens]ity change: 0.001 electrons / valence electron
 Maximum integral of absolute [eigenst]ate change: 0.0001 eV^2 / valence electron
 Maximum number of scf [iter]ations: 333
 (Square brackets indicate name in SCF output, whereas a 'c' in
 the SCF output indicates the quantity has converged.)

Symmetries present (total): 2

  ( 1  0  0)  ( 1  0  0)
  ( 0  1  0)  ( 0  0  1)
  ( 0  0  1)  ( 0  1  0)

512 k-points: 8 x 8 x 8 Monkhorst-Pack grid + [1/16,1/16,1/16]
150 k-points in the irreducible part of the Brillouin zone
       k-points in crystal coordinates                weights
   0:     0.00000000    0.00000000    0.00000000          1/512
   1:     0.00000000    0.12500000   -0.12500000          2/512
   2:     0.00000000    0.12500000    0.00000000          4/512
   3:     0.00000000    0.12500000    0.12500000          2/512
   4:     0.00000000    0.25000000   -0.25000000          2/512
   5:     0.00000000    0.25000000   -0.12500000          4/512
   6:     0.00000000    0.25000000    0.00000000          4/512
   7:     0.00000000    0.25000000    0.12500000          4/512
   8:     0.00000000    0.25000000    0.25000000          2/512
   9:     0.00000000    0.37500000   -0.37500000          2/512
          ...
 149:     0.50000000    0.50000000    0.50000000          1/512

Wave functions: Plane wave expansion
  Cutoff energy: 500.000 eV
  Number of coefficients (min, max): 2512, 2612
  Pulay-stress correction: 0.000000 eV/Ang^3 (de/decut=0.000000)
  Using Numpy's FFT
  ScaLapack parameters: grid=1x1, blocksize=None
  Wavefunction extrapolation:
    Improved wavefunction reuse through dual PAW basis 

Occupation numbers: Fermi-Dirac: width=0.1000 eV
 

Eigensolver
   Davidson(niter=2) 

Densities:
  Coarse grid: 25*25*25 grid
  Fine grid: 50*50*50 grid
  Total Charge: 0.000000 

Density mixing:
  Method: difference
  Backend: pulay
  Linear mixing parameter: 0.05
  Mixing with 5 old densities
  Damping of long wave oscillations: 50 

Hamiltonian:
  XC and Coulomb potentials evaluated on a 50*50*50 grid
  Using the PBE Exchange-Correlation functional
  External potential:
    NoExternalPotential
 

XC parameters: PBE with 2 nearest neighbor stencil

Memory estimate:
  Process memory now: 790.54 MiB
  Calculator: 340.86 MiB
    Density: 9.23 MiB
      Arrays: 4.17 MiB
      Localized functions: 3.39 MiB
      Mixer: 1.67 MiB
    Hamiltonian: 3.18 MiB
      Arrays: 3.10 MiB
      XC: 0.00 MiB
      Poisson: 0.00 MiB
      vbar: 0.08 MiB
    Wavefunctions: 328.44 MiB
      Arrays psit_nG: 263.05 MiB
      Eigensolver: 1.15 MiB
      Projections: 7.75 MiB
      Projectors: 49.91 MiB
      PW-descriptor: 6.57 MiB

Total number of cores used: 1

Number of atoms: 9
Number of atomic orbitals: 36
Number of bands in calculation: 22
Number of valence electrons: 29
Bands to converge: occupied

... initialized

Initializing position-dependent things.

Density initialized from atomic densities
Creating initial wave functions:
  22 bands from LCAO basis set

    .----------.  
   /|          |  
  / |      Li  |  
 *  |          |  
 | O|     Li   |  
 |  |      Li  |  
 |  .--O-------.  
 | /Li  O Li  /   
 |/          /    
 O----------*     

Positions:
   0 Li     1.164710    1.164710    1.164710    ( 0.0000,  0.0000,  0.0000)
   1 Li     3.494131    1.164710    1.164710    ( 0.0000,  0.0000,  0.0000)
   2 Li     3.494131    3.494131    1.164710    ( 0.0000,  0.0000,  0.0000)
   3 Li     3.494131    3.494131    3.494131    ( 0.0000,  0.0000,  0.0000)
   4 Li     3.494131    1.164710    3.494131    ( 0.0000,  0.0000,  0.0000)
   5 O      0.000000    0.000000    0.000000    ( 0.0000,  0.0000,  0.0000)
   6 O      0.000000    2.329421    2.329421    ( 0.0000,  0.0000,  0.0000)
   7 O      2.329421    0.000000    2.329421    ( 0.0000,  0.0000,  0.0000)
   8 O      2.329421    2.329421    0.000000    ( 0.0000,  0.0000,  0.0000)

Unit cell:
           periodic     x           y           z      points  spacing
  1. axis:    yes    4.658842    0.000000    0.000000    25     0.1864
  2. axis:    yes    0.000000    4.658842    0.000000    25     0.1864
  3. axis:    yes    0.000000    0.000000    4.658842    25     0.1864

  Lengths:   4.658842   4.658842   4.658842
  Angles:   90.000000  90.000000  90.000000

Effective grid spacing dv^(1/3) = 0.1864

     iter     time        total  log10-change:  magmom
                         energy  eigst   dens
iter:   1 14:13:49   -38.035532                  +0.0000
iter:   2 14:14:42   -37.811032  -1.74  -0.95    +0.0000
iter:   3 14:15:32   -37.084458  -1.64  -0.99    +0.0000
iter:   4 14:16:20   -37.019905  -1.70  -1.18    -0.0000
iter:   5 14:17:14   -37.007931  -2.01  -1.38    -0.0000
iter:   6 14:18:05   -37.031350  -2.97  -1.79    -0.0000
iter:   7 14:18:53   -37.017648  -2.87  -1.90    -0.0000
iter:   8 14:19:49   -37.017618  -3.23  -2.08    -0.0000
iter:   9 14:20:39   -37.015924c -4.19c -2.53    -0.0000
iter:  10 14:21:32   -37.016000c -5.51c -2.68    -0.0000
iter:  11 14:22:24   -37.016320c -5.01c -2.77    -0.0000
iter:  12 14:23:14   -37.016376c -5.88c -3.05c   +0.0000

Converged after 12 iterations.

Dipole moment: (1.912340, -0.639168, -0.639168) |e|*Ang

Total magnetic moment: (0.000000, 0.000000, 0.000000)
Local magnetic moments:
   0 Li ( 0.000000,  0.000000,  0.000000)
   1 Li ( 0.000000,  0.000000,  0.000000)
   2 Li ( 0.000000,  0.000000, -0.000000)
   3 Li ( 0.000000,  0.000000,  0.000000)
   4 Li ( 0.000000,  0.000000, -0.000000)
   5 O  ( 0.000000,  0.000000,  0.000000)
   6 O  ( 0.000000,  0.000000, -0.000000)
   7 O  ( 0.000000,  0.000000,  0.000000)
   8 O  ( 0.000000,  0.000000,  0.000000)

Energy contributions relative to reference atoms: (reference = -9177.348306)

Kinetic:        +29.140110
Potential:      -27.204786
External:        +0.000000
XC:             -38.842414
Entropy (-ST):   -0.396487
Local:           +0.088958
--------------------------
Free energy:    -37.214620
Extrapolated:   -37.016376

Spin contamination: 0.000000 electrons
Showing only first 2 kpts
                      Up                     Down
 Kpt  Band  Eigenvalues  Occupancy  Eigenvalues  Occupancy
  0    12     -1.74754    0.99529     -1.74754    0.99529
  0    13     -0.96646    0.07887     -0.96646    0.07887
  0    14     -0.96644    0.07886     -0.96644    0.07886
  0    15     -0.94912    0.06716     -0.94912    0.06716

  1    12     -1.69139    0.99177     -1.69139    0.99177
  1    13     -1.20128    0.47262     -1.20128    0.47262
  1    14     -1.00468    0.11149     -1.00468    0.11149
  1    15     -0.96903    0.08076     -0.96903    0.08076


Fermi level: -1.21224

No gap
Timing:                              incl.     excl.
-----------------------------------------------------------
Hamiltonian:                         0.412     0.007   0.0% |
 Atomic:                             0.310     0.001   0.0% |
  XC Correction:                     0.309     0.309   0.0% |
 Calculate atomic Hamiltonians:      0.017     0.017   0.0% |
 Communicate:                        0.000     0.000   0.0% |
 Initialize Hamiltonian:             0.000     0.000   0.0% |
 Poisson:                            0.000     0.000   0.0% |
 XC 3D grid:                         0.078     0.078   0.0% |
LCAO initialization:               191.788     0.080   0.0% |
 LCAO eigensolver:                 156.585     0.015   0.0% |
  Calculate projections:             0.026     0.026   0.0% |
  DenseAtomicCorrection:             0.064     0.064   0.0% |
  Distribute overlap matrix:         0.008     0.008   0.0% |
  Orbital Layouts:                   0.176     0.176   0.0% |
  Potential matrix:                156.120   156.120  19.4% |-------|
  Sum over cells:                    0.176     0.176   0.0% |
 LCAO to grid:                      31.869    31.869   4.0% |-|
 Set positions (LCAO WFS):           3.253     0.409   0.1% |
  Basic WFS set positions:           0.001     0.001   0.0% |
  Basis functions set positions:     0.000     0.000   0.0% |
  P tci:                             1.511     1.511   0.2% |
  ST tci:                            1.304     1.304   0.2% |
  mktci:                             0.028     0.028   0.0% |
PWDescriptor:                        0.111     0.111   0.0% |
SCF-cycle:                         609.461     1.757   0.2% |
 Davidson:                         550.556    51.076   6.4% |--|
  Apply H:                         120.133   116.964  14.6% |-----|
   HMM T:                            3.170     3.170   0.4% |
  Subspace diag:                   123.314     0.268   0.0% |
   calc_h_matrix:                  119.276     2.748   0.3% |
    Apply H:                       116.528   115.024  14.3% |-----|
     HMM T:                          1.505     1.505   0.2% |
   diagonalize:                      0.922     0.922   0.1% |
   rotate_psi:                       2.848     2.848   0.4% |
  calc. matrices:                  246.039    15.893   2.0% ||
   Apply H:                        230.146   226.883  28.2% |----------|
    HMM T:                           3.263     3.263   0.4% |
  diagonalize:                       4.707     4.707   0.6% |
  rotate_psi:                        5.286     5.286   0.7% |
 Density:                           51.810     0.000   0.0% |
  Atomic density matrices:           0.448     0.448   0.1% |
  Mix:                               0.412     0.412   0.1% |
  Multipole moments:                 0.002     0.002   0.0% |
  Pseudo density:                   50.948    50.936   6.3% |--|
   Symmetrize density:               0.012     0.012   0.0% |
 Hamiltonian:                        4.198     0.017   0.0% |
  Atomic:                            3.138     0.010   0.0% |
   XC Correction:                    3.128     3.128   0.4% |
  Calculate atomic Hamiltonians:     0.168     0.168   0.0% |
  Communicate:                       0.000     0.000   0.0% |
  Poisson:                           0.005     0.005   0.0% |
  XC 3D grid:                        0.869     0.869   0.1% |
 Orthonormalize:                     1.140     0.020   0.0% |
  calc_s_matrix:                     0.333     0.333   0.0% |
  inverse-cholesky:                  0.025     0.025   0.0% |
  projections:                       0.648     0.648   0.1% |
  rotate_psi_s:                      0.113     0.113   0.0% |
Set symmetry:                        0.011     0.011   0.0% |
Other:                               1.982     1.982   0.2% |
-----------------------------------------------------------
Total:                                       803.765 100.0%

Memory usage: 917.87 MiB
Date: Wed Jul 20 14:23:15 2022
