
  ___ ___ ___ _ _ _  
 |   |   |_  | | | | 
 | | | | | . | | | | 
 |__ |  _|___|_____|  22.1.0
 |___|_|             

User:   gabrielbirnbaum@Gabriels-MacBook-Pro.local
Date:   Mon Jul 25 08:18:31 2022
Arch:   x86_64
Pid:    69738
Python: 3.9.13
gpaw:   /Users/gabrielbirnbaum/PycharmProjects/nanolithia/venv/lib/python3.9/site-packages/gpaw
_gpaw:  /Users/gabrielbirnbaum/PycharmProjects/nanolithia/venv/lib/python3.9/site-packages/
        _gpaw.cpython-39-darwin.so
ase:    /Users/gabrielbirnbaum/PycharmProjects/nanolithia/venv/lib/python3.9/site-packages/ase (version 3.22.1)
numpy:  /Users/gabrielbirnbaum/PycharmProjects/nanolithia/venv/lib/python3.9/site-packages/numpy (version 1.23.0)
scipy:  /Users/gabrielbirnbaum/PycharmProjects/nanolithia/venv/lib/python3.9/site-packages/scipy (version 1.8.1)
libxc:  5.2.3
units:  Angstrom and eV
cores: 1
OpenMP: False
OMP_NUM_THREADS: 1

Input parameters:
  convergence: {density: 0.001,
                eigenstates: 0.0001,
                energy: 0.0002}
  kpts: {gamma: True,
         size: (8, 8, 8)}
  mode: {ecut: 750.0,
         name: pw}
  setups: {O: :p,0.76,0}
  spinpol: False

System changes: positions, numbers, cell, pbc, initial_charges, initial_magmoms 

Initialize ...

Li-setup:
  name: Lithium
  id: b73562207f97a71b6967473b66fe8b65
  Z: 3.0
  valence: 1
  core: 2
  charge: 0.0
  file: /Users/gabrielbirnbaum/dft_learning/DIR/gpaw-setups-0.9.20000/Li.LDA.gz
  compensation charges: gauss, rc=0.33, lmax=2
  cutoffs: 1.91(filt), 2.55(core),
  valence states:
                energy  radius
    2s(1.00)    -2.874   1.058
    2p(0.00)    -1.126   1.058
    *s          24.338   1.058

  Using partial waves for Li as LCAO basis

O-setup:
  name: Oxygen
  id: 9b9d51c344dea68c822856295a461509
  Z: 8.0
  valence: 6
  core: 2
  charge: 0.0
  Hubbard U: 0.760000 eV (l=1, scale=False)
  file: /Users/gabrielbirnbaum/dft_learning/DIR/gpaw-setups-0.9.20000/O.LDA.gz
  compensation charges: gauss, rc=0.21, lmax=2
  cutoffs: 1.17(filt), 0.83(core),
  valence states:
                energy  radius
    2s(2.00)   -23.752   0.688
    2p(4.00)    -9.195   0.598
    *s           3.459   0.688
    *p          18.016   0.598
    *d           0.000   0.619

  Using partial waves for O as LCAO basis

Reference energy: -8910.067456

Spin-paired calculation

Convergence criteria:
 Maximum [total energy] change in last 3 cyles: 0.0002 eV / electron
 Maximum integral of absolute [dens]ity change: 0.001 electrons / valence electron
 Maximum integral of absolute [eigenst]ate change: 0.0001 eV^2 / valence electron
 Maximum number of scf [iter]ations: 333
 (Square brackets indicate name in SCF output, whereas a 'c' in
 the SCF output indicates the quantity has converged.)

Symmetries present (total): 4

  ( 1  0  0)  ( 0  1  0)  ( 0 -1  0)  (-1  0  0)
  ( 0  1  0)  ( 1  0  0)  (-1  0  0)  ( 0 -1  0)
  ( 0  0  1)  ( 0  0 -1)  ( 0  0  1)  ( 0  0 -1)

512 k-points: 8 x 8 x 8 Monkhorst-Pack grid + [1/16,1/16,1/16]
150 k-points in the irreducible part of the Brillouin zone
       k-points in crystal coordinates                weights
   0:     0.00000000    0.00000000    0.00000000          1/512
   1:     0.00000000    0.00000000    0.12500000          2/512
   2:     0.00000000    0.00000000    0.25000000          2/512
   3:     0.00000000    0.00000000    0.37500000          2/512
   4:     0.00000000    0.00000000    0.50000000          1/512
   5:     0.12500000   -0.12500000   -0.37500000          2/512
   6:     0.12500000   -0.12500000   -0.25000000          2/512
   7:     0.12500000   -0.12500000   -0.12500000          2/512
   8:     0.12500000   -0.12500000    0.00000000          2/512
   9:     0.12500000   -0.12500000    0.12500000          2/512
          ...
 149:     0.50000000    0.50000000    0.50000000          1/512

Wave functions: Plane wave expansion
  Cutoff energy: 750.000 eV
  Number of coefficients (min, max): 3122, 3169
  Pulay-stress correction: 0.000000 eV/Ang^3 (de/decut=0.000000)
  Using Numpy's FFT
  ScaLapack parameters: grid=1x1, blocksize=None
  Wavefunction extrapolation:
    Improved wavefunction reuse through dual PAW basis 

Occupation numbers: Fermi-Dirac: width=0.1000 eV
 

Eigensolver
   Davidson(niter=2) 

Densities:
  Coarse grid: 21*21*49 grid
  Fine grid: 42*42*98 grid
  Total Charge: 0.000000 

Density mixing:
  Method: separate
  Backend: pulay
  Linear mixing parameter: 0.05
  Mixing with 5 old densities
  Damping of long wave oscillations: 50 

Hamiltonian:
  XC and Coulomb potentials evaluated on a 42*42*98 grid
  Using the LDA Exchange-Correlation functional
  External potential:
    NoExternalPotential
 

Memory estimate:
  Process memory now: 851.16 MiB
  Calculator: 239.41 MiB
    Density: 10.10 MiB
      Arrays: 4.29 MiB
      Localized functions: 4.17 MiB
      Mixer: 1.65 MiB
    Hamiltonian: 2.90 MiB
      Arrays: 2.80 MiB
      XC: 0.00 MiB
      Poisson: 0.00 MiB
      vbar: 0.10 MiB
    Wavefunctions: 226.41 MiB
      Arrays psit_nG: 152.32 MiB
      Eigensolver: 1.33 MiB
      Projections: 3.46 MiB
      Projectors: 61.22 MiB
      PW-descriptor: 8.08 MiB

Total number of cores used: 1

Number of atoms: 8
Number of atomic orbitals: 32
Number of bands in calculation: 21
Number of valence electrons: 28
Bands to converge: occupied

... initialized

Initializing position-dependent things.

Density initialized from atomic densities
Creating initial wave functions:
  21 bands from LCAO basis set

                      
                      
                      
                      
             O        
                      
           LiO        
                      
        Li            
                      
           O Li       
                      
           O          
        Li            
                      
                      
                      
                      

Positions:
   0 Li     0.000000    0.000000    3.851761    ( 0.0000,  0.0000,  0.0000)
   1 Li     0.000000    0.000000    0.000000    ( 0.0000,  0.0000,  0.0000)
   2 Li     1.590181   -0.918093    5.777642    ( 0.0000,  0.0000,  0.0000)
   3 Li     1.590181    0.918093    1.925881    ( 0.0000,  0.0000,  0.0000)
   4 O      1.590181   -0.918093    1.150213    ( 0.0000,  0.0000,  0.0000)
   5 O      1.590181    0.918093    5.001974    ( 0.0000,  0.0000,  0.0000)
   6 O      1.590181    0.918093    6.553309    ( 0.0000,  0.0000,  0.0000)
   7 O      1.590181   -0.918093    2.701548    ( 0.0000,  0.0000,  0.0000)

Unit cell:
           periodic     x           y           z      points  spacing
  1. axis:    yes    1.590181   -2.754274    0.000000    21     0.1312
  2. axis:    yes    1.590181    2.754274    0.000000    21     0.1312
  3. axis:    yes    0.000000    0.000000    7.703522    49     0.1572

  Lengths:   3.180362   3.180362   7.703522
  Angles:   90.000000  90.000000 119.999995

Effective grid spacing dv^(1/3) = 0.1462

     iter     time        total  log10-change:
                         energy  eigst   dens
iter:   1 08:19:22   -42.656042
iter:   2 08:19:46   -42.467391  -1.57  -0.90
iter:   3 08:20:12   -41.560469  -1.33  -0.94
iter:   4 08:20:38   -41.858479  -1.30  -1.27
iter:   5 08:21:04   -41.396722  -1.33  -1.33
iter:   6 08:21:31   -41.398120  -3.17  -2.13
iter:   7 08:21:58   -41.428753  -2.19  -2.14
iter:   8 08:22:25   -41.391960  -2.61  -1.86
iter:   9 08:22:52   -41.391495  -4.01c -2.50
iter:  10 08:23:18   -41.391960c -3.44  -2.62
iter:  11 08:23:44   -41.391305c -4.92c -2.72
iter:  12 08:24:09   -41.391069c -4.44c -2.98
iter:  13 08:24:36   -41.391068c -6.66c -3.80c

Converged after 13 iterations.

Dipole moment: (0.000000, -0.000000, -0.000000) |e|*Ang

Energy contributions relative to reference atoms: (reference = -8910.067456)

Kinetic:        +40.361795
Potential:      -39.683440
External:        +0.000000
XC:             -42.938074
Entropy (-ST):   -0.000013
Local:           +0.868656
--------------------------
Free energy:    -41.391075
Extrapolated:   -41.391068

Showing only first 2 kpts
 Kpt  Band  Eigenvalues  Occupancy
  0    12      2.29764    1.99997
  0    13      2.29764    1.99997
  0    14      4.25497    0.00047
  0    15      6.48854    0.00000

  1    12      2.28885    1.99998
  1    13      2.28885    1.99998
  1    14      4.34837    0.00019
  1    15      6.39620    0.00000


Fermi level: 3.42022

Gap: 1.942 eV
Transition (v -> c):
  (s=0, k=16, n=13, [0.12, 0.00, 0.00]) -> (s=0, k=0, n=14, [0.00, 0.00, 0.00])
Timing:                              incl.     excl.
-----------------------------------------------------------
Hamiltonian:                         0.073     0.001   0.0% |
 Atomic:                             0.043     0.002   0.0% |
  XC Correction:                     0.041     0.041   0.0% |
 Calculate atomic Hamiltonians:      0.012     0.012   0.0% |
 Communicate:                        0.000     0.000   0.0% |
 Initialize Hamiltonian:             0.000     0.000   0.0% |
 Poisson:                            0.000     0.000   0.0% |
 XC 3D grid:                         0.016     0.016   0.0% |
LCAO initialization:                26.181     0.041   0.0% |
 LCAO eigensolver:                   1.341     0.005   0.0% |
  Calculate projections:             0.009     0.009   0.0% |
  DenseAtomicCorrection:             0.032     0.032   0.0% |
  Distribute overlap matrix:         0.003     0.003   0.0% |
  Orbital Layouts:                   0.070     0.070   0.0% |
  Potential matrix:                  1.092     1.092   0.3% |
  Sum over cells:                    0.131     0.131   0.0% |
 LCAO to grid:                      21.923    21.923   6.0% |-|
 Set positions (LCAO WFS):           2.876     0.389   0.1% |
  Basic WFS set positions:           0.001     0.001   0.0% |
  Basis functions set positions:     0.000     0.000   0.0% |
  P tci:                             1.066     1.066   0.3% |
  ST tci:                            1.383     1.383   0.4% |
  mktci:                             0.038     0.038   0.0% |
PWDescriptor:                        0.073     0.073   0.0% |
SCF-cycle:                         337.081     0.424   0.1% |
 Davidson:                         305.770    26.044   7.1% |--|
  Apply H:                          67.748    65.829  18.0% |------|
   HMM T:                            1.920     1.920   0.5% |
  Subspace diag:                    69.817     0.119   0.0% |
   calc_h_matrix:                   67.650     1.410   0.4% |
    Apply H:                        66.239    65.577  18.0% |------|
     HMM T:                          0.663     0.663   0.2% |
   diagonalize:                      0.410     0.410   0.1% |
   rotate_psi:                       1.639     1.639   0.4% |
  calc. matrices:                  137.084     8.245   2.3% ||
   Apply H:                        128.839   127.446  34.9% |-------------|
    HMM T:                           1.393     1.393   0.4% |
  diagonalize:                       1.936     1.936   0.5% |
  rotate_psi:                        3.141     3.141   0.9% |
 Density:                           29.239     0.000   0.0% |
  Atomic density matrices:           0.181     0.181   0.0% |
  Mix:                               0.367     0.367   0.1% |
  Multipole moments:                 0.002     0.002   0.0% |
  Pseudo density:                   28.690    28.667   7.9% |--|
   Symmetrize density:               0.023     0.023   0.0% |
 Hamiltonian:                        1.132     0.018   0.0% |
  Atomic:                            0.639     0.033   0.0% |
   XC Correction:                    0.606     0.606   0.2% |
  Calculate atomic Hamiltonians:     0.229     0.229   0.1% |
  Communicate:                       0.000     0.000   0.0% |
  Poisson:                           0.006     0.006   0.0% |
  XC 3D grid:                        0.240     0.240   0.1% |
 Orthonormalize:                     0.517     0.009   0.0% |
  calc_s_matrix:                     0.101     0.101   0.0% |
  inverse-cholesky:                  0.011     0.011   0.0% |
  projections:                       0.337     0.337   0.1% |
  rotate_psi_s:                      0.059     0.059   0.0% |
Set symmetry:                        0.009     0.009   0.0% |
Other:                               1.423     1.423   0.4% |
-----------------------------------------------------------
Total:                                       364.840 100.0%

Memory usage: 854.80 MiB
Date: Mon Jul 25 08:24:36 2022
