
  ___ ___ ___ _ _ _  
 |   |   |_  | | | | 
 | | | | | . | | | | 
 |__ |  _|___|_____|  22.1.0
 |___|_|             

User:   gabrielbirnbaum@Gabriels-MacBook-Pro.local
Date:   Tue Jul 26 00:01:10 2022
Arch:   x86_64
Pid:    92584
Python: 3.9.13
gpaw:   /Users/gabrielbirnbaum/PycharmProjects/nanolithia/venv/lib/python3.9/site-packages/gpaw
_gpaw:  /Users/gabrielbirnbaum/PycharmProjects/nanolithia/venv/lib/python3.9/site-packages/
        _gpaw.cpython-39-darwin.so
ase:    /Users/gabrielbirnbaum/PycharmProjects/nanolithia/venv/lib/python3.9/site-packages/ase (version 3.22.1)
numpy:  /Users/gabrielbirnbaum/PycharmProjects/nanolithia/venv/lib/python3.9/site-packages/numpy (version 1.23.0)
scipy:  /Users/gabrielbirnbaum/PycharmProjects/nanolithia/venv/lib/python3.9/site-packages/scipy (version 1.8.1)
libxc:  5.2.3
units:  Angstrom and eV
cores: 1
OpenMP: False
OMP_NUM_THREADS: 1

Input parameters:
  convergence: {density: 0.001,
                eigenstates: 0.0001,
                energy: 0.0002}
  kpts: {gamma: True,
         size: (8, 8, 8)}
  mode: {ecut: 850.0,
         name: pw}
  setups: {O: :p,0.33,0}
  spinpol: True

System changes: positions, numbers, cell, pbc, initial_charges, initial_magmoms 

Initialize ...

Li-setup:
  name: Lithium
  id: b73562207f97a71b6967473b66fe8b65
  Z: 3.0
  valence: 1
  core: 2
  charge: 0.0
  file: /Users/gabrielbirnbaum/dft_learning/DIR/gpaw-setups-0.9.20000/Li.LDA.gz
  compensation charges: gauss, rc=0.33, lmax=2
  cutoffs: 1.91(filt), 2.55(core),
  valence states:
                energy  radius
    2s(1.00)    -2.874   1.058
    2p(0.00)    -1.126   1.058
    *s          24.338   1.058

  Using partial waves for Li as LCAO basis

O-setup:
  name: Oxygen
  id: 9b9d51c344dea68c822856295a461509
  Z: 8.0
  valence: 6
  core: 2
  charge: 0.0
  Hubbard U: 0.330000 eV (l=1, scale=False)
  file: /Users/gabrielbirnbaum/dft_learning/DIR/gpaw-setups-0.9.20000/O.LDA.gz
  compensation charges: gauss, rc=0.21, lmax=2
  cutoffs: 1.17(filt), 0.83(core),
  valence states:
                energy  radius
    2s(2.00)   -23.752   0.688
    2p(4.00)    -9.195   0.598
    *s           3.459   0.688
    *p          18.016   0.598
    *d           0.000   0.619

  Using partial waves for O as LCAO basis

Reference energy: -8510.849865

Spin-polarized calculation.
Magnetic moment: 0.000000

Convergence criteria:
 Maximum [total energy] change in last 3 cyles: 0.0002 eV / electron
 Maximum integral of absolute [dens]ity change: 0.001 electrons / valence electron
 Maximum integral of absolute [eigenst]ate change: 0.0001 eV^2 / valence electron
 Maximum number of scf [iter]ations: 333
 (Square brackets indicate name in SCF output, whereas a 'c' in
 the SCF output indicates the quantity has converged.)

Symmetries present (total): 4

  ( 1  0  0)  ( 1  0  0)  (-1  0  0)  (-1  0  0)
  ( 0  1  0)  ( 0 -1  0)  ( 0  1  0)  ( 0 -1  0)
  ( 0  0  1)  ( 0  0 -1)  ( 0  0  1)  ( 0  0 -1)

512 k-points: 8 x 8 x 8 Monkhorst-Pack grid + [1/16,1/16,1/16]
170 k-points in the irreducible part of the Brillouin zone
       k-points in crystal coordinates                weights
   0:     0.00000000    0.00000000    0.00000000          1/512
   1:     0.00000000    0.00000000    0.12500000          2/512
   2:     0.00000000    0.00000000    0.25000000          2/512
   3:     0.00000000    0.00000000    0.37500000          2/512
   4:     0.00000000    0.00000000    0.50000000          1/512
   5:     0.00000000    0.12500000   -0.37500000          2/512
   6:     0.00000000    0.12500000   -0.25000000          2/512
   7:     0.00000000    0.12500000   -0.12500000          2/512
   8:     0.00000000    0.12500000    0.00000000          2/512
   9:     0.00000000    0.12500000    0.12500000          2/512
          ...
 169:     0.50000000    0.50000000    0.50000000          1/512

Wave functions: Plane wave expansion
  Cutoff energy: 850.000 eV
  Number of coefficients (min, max): 3220, 3288
  Pulay-stress correction: 0.000000 eV/Ang^3 (de/decut=0.000000)
  Using Numpy's FFT
  ScaLapack parameters: grid=1x1, blocksize=None
  Wavefunction extrapolation:
    Improved wavefunction reuse through dual PAW basis 

Occupation numbers: Fermi-Dirac: width=0.1000 eV
 

Eigensolver
   Davidson(niter=2) 

Densities:
  Coarse grid: 20*27*35 grid
  Fine grid: 40*54*70 grid
  Total Charge: 0.000000 

Density mixing:
  Method: difference
  Backend: pulay
  Linear mixing parameter: 0.05
  Mixing with 5 old densities
  Damping of long wave oscillations: 50 

Hamiltonian:
  XC and Coulomb potentials evaluated on a 40*54*70 grid
  Using the LDA Exchange-Correlation functional
  External potential:
    NoExternalPotential
 

Memory estimate:
  Process memory now: 1077.90 MiB
  Calculator: 445.08 MiB
    Density: 11.38 MiB
      Arrays: 5.05 MiB
      Localized functions: 4.31 MiB
      Mixer: 2.02 MiB
    Hamiltonian: 3.85 MiB
      Arrays: 3.75 MiB
      XC: 0.00 MiB
      Poisson: 0.00 MiB
      vbar: 0.11 MiB
    Wavefunctions: 429.84 MiB
      Arrays psit_nG: 341.16 MiB
      Eigensolver: 1.32 MiB
      Projections: 6.43 MiB
      Projectors: 71.68 MiB
      PW-descriptor: 9.25 MiB

Total number of cores used: 1

Number of atoms: 6
Number of atomic orbitals: 24
Number of bands in calculation: 20
Number of valence electrons: 26
Bands to converge: occupied

... initialized

Initializing position-dependent things.

Density initialized from atomic densities
Creating initial wave functions:
  20 bands from LCAO basis set

   .------.  
  /|      |  
 * | O    |  
 | O      |  
 | | Li   |  
 O |      |  
 | .--O---.  
 |/      /   
 Li-----*    

Positions:
   0 Li     1.480551    1.992835    2.448045    ( 0.0000,  0.0000,  0.0000)
   1 Li     0.000000    0.000000    0.000000    ( 0.0000,  0.0000,  0.0000)
   2 O      1.480551    2.518377    0.419218    ( 0.0000,  0.0000,  0.0000)
   3 O      1.480551    1.467292    4.476872    ( 0.0000,  0.0000,  0.0000)
   4 O      0.000000    0.525542    2.028827    ( 0.0000,  0.0000,  0.0000)
   5 O      0.000000    3.460127    2.867263    ( 0.0000,  0.0000,  0.0000)

Unit cell:
           periodic     x           y           z      points  spacing
  1. axis:    yes    2.961101    0.000000    0.000000    20     0.1481
  2. axis:    yes    0.000000    3.985669    0.000000    27     0.1476
  3. axis:    yes    0.000000    0.000000    4.896090    35     0.1399

  Lengths:   2.961101   3.985669   4.896090
  Angles:   90.000000  90.000000  90.000000

Effective grid spacing dv^(1/3) = 0.1451

     iter     time        total  log10-change:  magmom
                         energy  eigst   dens
iter:   1 00:06:39   -33.170801                  +0.0000
iter:   2 00:07:29   -33.056212  -1.58  -1.03    +0.0000
iter:   3 00:08:22   -32.311891  -1.49  -1.07    +0.0000
iter:   4 00:09:13   -32.303078  -2.05  -1.48    +0.0000
iter:   5 00:10:04   -32.281737  -2.00  -1.70    +0.0000
iter:   6 00:10:54   -32.265979  -3.60  -1.98    +0.0000
iter:   7 00:11:45   -32.262774  -4.01c -2.25    +0.0000
iter:   8 00:12:35   -32.262068c -2.95  -2.39    +0.0000
iter:   9 00:13:26   -32.261116c -5.02c -2.57    +0.0000
iter:  10 00:14:16   -32.260586c -3.49  -2.69    +0.0000
iter:  11 00:15:08   -32.260256c -4.33c -2.89    +0.0000
iter:  12 00:16:00   -32.260155c -5.50c -3.40c   +0.0000

Converged after 12 iterations.

Dipole moment: (-0.000000, -0.000000, 0.000000) |e|*Ang

Total magnetic moment: (0.000000, 0.000000, 0.000000)
Local magnetic moments:
   0 Li ( 0.000000,  0.000000,  0.000000)
   1 Li ( 0.000000,  0.000000,  0.000000)
   2 O  ( 0.000000,  0.000000,  0.000000)
   3 O  ( 0.000000,  0.000000,  0.000000)
   4 O  ( 0.000000,  0.000000,  0.000000)
   5 O  ( 0.000000,  0.000000,  0.000000)

Energy contributions relative to reference atoms: (reference = -8510.849865)

Kinetic:        +29.097659
Potential:      -31.359113
External:        +0.000000
XC:             -30.817470
Entropy (-ST):   -0.171765
Local:           +0.904651
--------------------------
Free energy:    -32.346037
Extrapolated:   -32.260155

Spin contamination: 0.000000 electrons
Showing only first 2 kpts
                      Up                     Down
 Kpt  Band  Eigenvalues  Occupancy  Eigenvalues  Occupancy
  0    11      1.83435    0.15040      1.83435    0.15040
  0    12      2.04008    0.02212      2.04008    0.02212
  0    13      2.13204    0.00894      2.13204    0.00894
  0    14      7.90508    0.00000      7.90508    0.00000

  1    11      1.73623    0.32075      1.73623    0.32075
  1    12      2.04481    0.02112      2.04481    0.02112
  1    13      2.12966    0.00915      2.12966    0.00915
  1    14      7.80540    0.00000      7.80540    0.00000


Fermi level: 1.66120

No gap
Timing:                              incl.     excl.
-----------------------------------------------------------
Hamiltonian:                         0.104     0.003   0.0% |
 Atomic:                             0.055     0.003   0.0% |
  XC Correction:                     0.052     0.052   0.0% |
 Calculate atomic Hamiltonians:      0.012     0.012   0.0% |
 Communicate:                        0.000     0.000   0.0% |
 Initialize Hamiltonian:             0.000     0.000   0.0% |
 Poisson:                            0.000     0.000   0.0% |
 XC 3D grid:                         0.034     0.034   0.0% |
LCAO initialization:               282.295     0.032   0.0% |
 LCAO eigensolver:                 253.460     0.016   0.0% |
  Calculate projections:             0.019     0.019   0.0% |
  DenseAtomicCorrection:             0.056     0.056   0.0% |
  Distribute overlap matrix:         0.007     0.007   0.0% |
  Orbital Layouts:                   0.124     0.124   0.0% |
  Potential matrix:                253.065   253.065  28.4% |----------|
  Sum over cells:                    0.173     0.173   0.0% |
 LCAO to grid:                      26.796    26.796   3.0% ||
 Set positions (LCAO WFS):           2.008     0.290   0.0% |
  Basic WFS set positions:           0.001     0.001   0.0% |
  Basis functions set positions:     0.000     0.000   0.0% |
  P tci:                             0.759     0.759   0.1% |
  ST tci:                            0.934     0.934   0.1% |
  mktci:                             0.024     0.024   0.0% |
PWDescriptor:                        0.090     0.090   0.0% |
SCF-cycle:                         605.355     1.571   0.2% |
 Davidson:                         552.075    43.631   4.9% |-|
  Apply H:                         126.620   123.412  13.9% |-----|
   HMM T:                            3.208     3.208   0.4% |
  Subspace diag:                   123.628     0.233   0.0% |
   calc_h_matrix:                  119.728     2.324   0.3% |
    Apply H:                       117.405   116.131  13.1% |----|
     HMM T:                          1.274     1.274   0.1% |
   diagonalize:                      0.766     0.766   0.1% |
   rotate_psi:                       2.900     2.900   0.3% |
  calc. matrices:                  249.343    14.671   1.6% ||
   Apply H:                        234.672   232.125  26.1% |---------|
    HMM T:                           2.547     2.547   0.3% |
  diagonalize:                       3.480     3.480   0.4% |
  rotate_psi:                        5.373     5.373   0.6% |
 Density:                           49.486     0.000   0.0% |
  Atomic density matrices:           0.262     0.262   0.0% |
  Mix:                               0.347     0.347   0.0% |
  Multipole moments:                 0.001     0.001   0.0% |
  Pseudo density:                   48.876    48.842   5.5% |-|
   Symmetrize density:               0.034     0.034   0.0% |
 Hamiltonian:                        1.223     0.021   0.0% |
  Atomic:                            0.645     0.044   0.0% |
   XC Correction:                    0.600     0.600   0.1% |
  Calculate atomic Hamiltonians:     0.137     0.137   0.0% |
  Communicate:                       0.000     0.000   0.0% |
  Poisson:                           0.005     0.005   0.0% |
  XC 3D grid:                        0.415     0.415   0.0% |
 Orthonormalize:                     1.000     0.019   0.0% |
  calc_s_matrix:                     0.225     0.225   0.0% |
  inverse-cholesky:                  0.023     0.023   0.0% |
  projections:                       0.610     0.610   0.1% |
  rotate_psi_s:                      0.123     0.123   0.0% |
Set symmetry:                        0.009     0.009   0.0% |
Other:                               1.864     1.864   0.2% |
-----------------------------------------------------------
Total:                                       889.717 100.0%

Memory usage: 1.22 GiB
Date: Tue Jul 26 00:16:00 2022
