
  ___ ___ ___ _ _ _  
 |   |   |_  | | | | 
 | | | | | . | | | | 
 |__ |  _|___|_____|  22.1.0
 |___|_|             

User:   gabrielbirnbaum@Gabriels-MacBook-Pro.local
Date:   Wed Jul 20 08:13:10 2022
Arch:   x86_64
Pid:    84796
Python: 3.9.13
gpaw:   /Users/gabrielbirnbaum/PycharmProjects/nanolithia/venv/lib/python3.9/site-packages/gpaw
_gpaw:  /Users/gabrielbirnbaum/PycharmProjects/nanolithia/venv/lib/python3.9/site-packages/
        _gpaw.cpython-39-darwin.so
ase:    /Users/gabrielbirnbaum/PycharmProjects/nanolithia/venv/lib/python3.9/site-packages/ase (version 3.22.1)
numpy:  /Users/gabrielbirnbaum/PycharmProjects/nanolithia/venv/lib/python3.9/site-packages/numpy (version 1.23.0)
scipy:  /Users/gabrielbirnbaum/PycharmProjects/nanolithia/venv/lib/python3.9/site-packages/scipy (version 1.8.1)
libxc:  5.2.3
units:  Angstrom and eV
cores: 1
OpenMP: False
OMP_NUM_THREADS: 1

Input parameters:
  convergence: {density: 0.001,
                eigenstates: 0.0001,
                energy: 0.0002}
  kpts: {gamma: True,
         size: (8, 8, 8)}
  mode: {ecut: 500.0,
         name: pw}
  setups: {O: :p,0.33,0}
  spinpol: True
  xc: PBE

System changes: positions, numbers, cell, pbc, initial_charges, initial_magmoms 

Initialize ...

Li-setup:
  name: Lithium
  id: 830b4218f175192f93f959cfc0aad614
  Z: 3.0
  valence: 1
  core: 2
  charge: 0.0
  file: /Users/gabrielbirnbaum/dft_learning/DIR/gpaw-setups-0.9.20000/Li.PBE.gz
  compensation charges: gauss, rc=0.33, lmax=2
  cutoffs: 1.91(filt), 2.55(core),
  valence states:
                energy  radius
    2s(1.00)    -2.874   1.058
    2p(0.00)    -1.090   1.058
    *s          24.337   1.058

  Using partial waves for Li as LCAO basis

O-setup:
  name: Oxygen
  id: 32ecd46bf208036f09c70b0ec9a88b78
  Z: 8.0
  valence: 6
  core: 2
  charge: 0.0
  Hubbard U: 0.330000 eV (l=1, scale=False)
  file: /Users/gabrielbirnbaum/dft_learning/DIR/gpaw-setups-0.9.20000/O.PBE.gz
  compensation charges: gauss, rc=0.21, lmax=2
  cutoffs: 1.17(filt), 0.83(core),
  valence states:
                energy  radius
    2s(2.00)   -23.961   0.688
    2p(4.00)    -9.029   0.598
    *s           3.251   0.688
    *p          18.182   0.598
    *d           0.000   0.619

  Using partial waves for O as LCAO basis

Reference energy: -8568.984845

Spin-polarized calculation.
Magnetic moment: 0.000000

Convergence criteria:
 Maximum [total energy] change in last 3 cyles: 0.0002 eV / electron
 Maximum integral of absolute [dens]ity change: 0.001 electrons / valence electron
 Maximum integral of absolute [eigenst]ate change: 0.0001 eV^2 / valence electron
 Maximum number of scf [iter]ations: 333
 (Square brackets indicate name in SCF output, whereas a 'c' in
 the SCF output indicates the quantity has converged.)

Symmetries present (total): 4

  ( 1  0  0)  ( 1  0  0)  (-1  0  0)  (-1  0  0)
  ( 0  1  0)  ( 0 -1  0)  ( 0  1  0)  ( 0 -1  0)
  ( 0  0  1)  ( 0  0 -1)  ( 0  0  1)  ( 0  0 -1)

512 k-points: 8 x 8 x 8 Monkhorst-Pack grid + [1/16,1/16,1/16]
170 k-points in the irreducible part of the Brillouin zone
       k-points in crystal coordinates                weights
   0:     0.00000000    0.00000000    0.00000000          1/512
   1:     0.00000000    0.00000000    0.12500000          2/512
   2:     0.00000000    0.00000000    0.25000000          2/512
   3:     0.00000000    0.00000000    0.37500000          2/512
   4:     0.00000000    0.00000000    0.50000000          1/512
   5:     0.00000000    0.12500000   -0.37500000          2/512
   6:     0.00000000    0.12500000   -0.25000000          2/512
   7:     0.00000000    0.12500000   -0.12500000          2/512
   8:     0.00000000    0.12500000    0.00000000          2/512
   9:     0.00000000    0.12500000    0.12500000          2/512
          ...
 169:     0.50000000    0.50000000    0.50000000          1/512

Wave functions: Plane wave expansion
  Cutoff energy: 500.000 eV
  Number of coefficients (min, max): 1438, 1492
  Pulay-stress correction: 0.000000 eV/Ang^3 (de/decut=0.000000)
  Using Numpy's FFT
  ScaLapack parameters: grid=1x1, blocksize=None
  Wavefunction extrapolation:
    Improved wavefunction reuse through dual PAW basis 

Occupation numbers: Fermi-Dirac: width=0.1000 eV
 

Eigensolver
   Davidson(niter=2) 

Densities:
  Coarse grid: 16*21*27 grid
  Fine grid: 32*42*54 grid
  Total Charge: 0.000000 

Density mixing:
  Method: difference
  Backend: pulay
  Linear mixing parameter: 0.05
  Mixing with 5 old densities
  Damping of long wave oscillations: 50 

Hamiltonian:
  XC and Coulomb potentials evaluated on a 32*42*54 grid
  Using the PBE Exchange-Correlation functional
  External potential:
    NoExternalPotential
 

XC parameters: PBE with 2 nearest neighbor stencil

Memory estimate:
  Process memory now: 840.55 MiB
  Calculator: 205.62 MiB
    Density: 5.34 MiB
      Arrays: 2.42 MiB
      Localized functions: 1.95 MiB
      Mixer: 0.97 MiB
    Hamiltonian: 1.85 MiB
      Arrays: 1.80 MiB
      XC: 0.00 MiB
      Poisson: 0.00 MiB
      vbar: 0.05 MiB
    Wavefunctions: 198.43 MiB
      Arrays psit_nG: 154.81 MiB
      Eigensolver: 0.63 MiB
      Projections: 6.43 MiB
      Projectors: 32.34 MiB
      PW-descriptor: 4.22 MiB

Total number of cores used: 1

Number of atoms: 6
Number of atomic orbitals: 24
Number of bands in calculation: 20
Number of valence electrons: 26
Bands to converge: occupied

... initialized

Initializing position-dependent things.

Density initialized from atomic densities
Creating initial wave functions:
  20 bands from LCAO basis set

   .------.  
  /|      |  
 * | O    |  
 | O      |  
 | | Li   |  
 O |      |  
 | .--O---.  
 |/      /   
 Li-----*    

Positions:
   0 Li     1.480551    1.992835    2.448045    ( 0.0000,  0.0000,  0.0000)
   1 Li     0.000000    0.000000    0.000000    ( 0.0000,  0.0000,  0.0000)
   2 O      1.480551    2.518377    0.419218    ( 0.0000,  0.0000,  0.0000)
   3 O      1.480551    1.467292    4.476872    ( 0.0000,  0.0000,  0.0000)
   4 O      0.000000    0.525542    2.028827    ( 0.0000,  0.0000,  0.0000)
   5 O      0.000000    3.460127    2.867263    ( 0.0000,  0.0000,  0.0000)

Unit cell:
           periodic     x           y           z      points  spacing
  1. axis:    yes    2.961101    0.000000    0.000000    16     0.1851
  2. axis:    yes    0.000000    3.985669    0.000000    21     0.1898
  3. axis:    yes    0.000000    0.000000    4.896090    27     0.1813

  Lengths:   2.961101   3.985669   4.896090
  Angles:   90.000000  90.000000  90.000000

Effective grid spacing dv^(1/3) = 0.1854

     iter     time        total  log10-change:  magmom
                         energy  eigst   dens
iter:   1 08:16:14   -28.112123                  +0.0000
iter:   2 08:16:40   -28.011866  -1.75  -1.02    +0.0000
iter:   3 08:17:07   -27.361176  -1.55  -1.05    +0.0000
iter:   4 08:17:34   -27.378577  -2.19  -1.49    +0.0000
iter:   5 08:18:01   -27.368942  -2.33  -1.70    +0.0000
iter:   6 08:18:29   -27.356984  -3.77  -2.04    +0.0000
iter:   7 08:18:57   -27.356509  -5.35c -2.34    +0.0000
iter:   8 08:19:29   -27.355163c -3.29  -2.37    +0.0000
iter:   9 08:19:59   -27.354489c -4.92c -2.72    -0.0000
iter:  10 08:20:27   -27.354766c -5.60c -2.81    -0.0000
iter:  11 08:20:56   -27.354137c -4.48c -2.74    -0.0000
iter:  12 08:21:24   -27.354134c -5.40c -3.39c   +0.0000

Converged after 12 iterations.

Dipole moment: (0.000000, -0.000000, 0.000000) |e|*Ang

Total magnetic moment: (0.000000, 0.000000, 0.000000)
Local magnetic moments:
   0 Li ( 0.000000,  0.000000, -0.000000)
   1 Li ( 0.000000,  0.000000,  0.000000)
   2 O  ( 0.000000,  0.000000,  0.000000)
   3 O  ( 0.000000,  0.000000,  0.000000)
   4 O  ( 0.000000,  0.000000,  0.000000)
   5 O  ( 0.000000,  0.000000,  0.000000)

Energy contributions relative to reference atoms: (reference = -8568.984845)

Kinetic:        +20.619697
Potential:      -20.261265
External:        +0.000000
XC:             -27.783412
Entropy (-ST):   -0.175489
Local:           +0.158591
--------------------------
Free energy:    -27.441878
Extrapolated:   -27.354134

Spin contamination: 0.000000 electrons
Showing only first 2 kpts
                      Up                     Down
 Kpt  Band  Eigenvalues  Occupancy  Eigenvalues  Occupancy
  0    11      2.19576    0.16369      2.19576    0.16369
  0    12      2.40105    0.02451      2.40105    0.02451
  0    13      2.48989    0.01023      2.48989    0.01023
  0    14      8.43898    0.00000      8.43898    0.00000

  1    11      2.09759    0.34314      2.09759    0.34314
  1    12      2.40603    0.02335      2.40603    0.02335
  1    13      2.49064    0.01015      2.49064    0.01015
  1    14      8.34566    0.00000      8.34566    0.00000


Fermi level: 2.03266

No gap
Timing:                              incl.     excl.
-----------------------------------------------------------
Hamiltonian:                         0.226     0.001   0.0% |
 Atomic:                             0.180     0.004   0.0% |
  XC Correction:                     0.175     0.175   0.0% |
 Calculate atomic Hamiltonians:      0.007     0.007   0.0% |
 Communicate:                        0.000     0.000   0.0% |
 Initialize Hamiltonian:             0.000     0.000   0.0% |
 Poisson:                            0.000     0.000   0.0% |
 XC 3D grid:                         0.039     0.039   0.0% |
LCAO initialization:               156.811     0.031   0.0% |
 LCAO eigensolver:                 141.169     0.016   0.0% |
  Calculate projections:             0.026     0.026   0.0% |
  DenseAtomicCorrection:             0.055     0.055   0.0% |
  Distribute overlap matrix:         0.008     0.008   0.0% |
  Orbital Layouts:                   0.132     0.132   0.0% |
  Potential matrix:                140.771   140.771  28.5% |----------|
  Sum over cells:                    0.162     0.162   0.0% |
 LCAO to grid:                      13.499    13.499   2.7% ||
 Set positions (LCAO WFS):           2.112     0.284   0.1% |
  Basic WFS set positions:           0.001     0.001   0.0% |
  Basis functions set positions:     0.000     0.000   0.0% |
  P tci:                             0.837     0.837   0.2% |
  ST tci:                            0.965     0.965   0.2% |
  mktci:                             0.025     0.025   0.0% |
PWDescriptor:                        0.064     0.064   0.0% |
SCF-cycle:                         335.720     1.132   0.2% |
 Davidson:                         304.236    22.827   4.6% |-|
  Apply H:                          65.332    64.368  13.0% |----|
   HMM T:                            0.964     0.964   0.2% |
  Subspace diag:                    69.413     0.256   0.1% |
   calc_h_matrix:                   66.709     1.581   0.3% |
    Apply H:                        65.128    64.135  13.0% |----|
     HMM T:                          0.993     0.993   0.2% |
   diagonalize:                      0.883     0.883   0.2% |
   rotate_psi:                       1.564     1.564   0.3% |
  calc. matrices:                  139.823     9.522   1.9% ||
   Apply H:                        130.301   128.425  26.0% |---------|
    HMM T:                           1.876     1.876   0.4% |
  diagonalize:                       3.920     3.920   0.8% |
  rotate_psi:                        2.922     2.922   0.6% |
 Density:                           27.367     0.000   0.0% |
  Atomic density matrices:           0.299     0.299   0.1% |
  Mix:                               0.141     0.141   0.0% |
  Multipole moments:                 0.001     0.001   0.0% |
  Pseudo density:                   26.926    26.908   5.4% |-|
   Symmetrize density:               0.018     0.018   0.0% |
 Hamiltonian:                        2.499     0.006   0.0% |
  Atomic:                            2.020     0.040   0.0% |
   XC Correction:                    1.981     1.981   0.4% |
  Calculate atomic Hamiltonians:     0.074     0.074   0.0% |
  Communicate:                       0.000     0.000   0.0% |
  Poisson:                           0.002     0.002   0.0% |
  XC 3D grid:                        0.396     0.396   0.1% |
 Orthonormalize:                     0.486     0.021   0.0% |
  calc_s_matrix:                     0.080     0.080   0.0% |
  inverse-cholesky:                  0.023     0.023   0.0% |
  projections:                       0.296     0.296   0.1% |
  rotate_psi_s:                      0.065     0.065   0.0% |
Set symmetry:                        0.010     0.010   0.0% |
Other:                               1.052     1.052   0.2% |
-----------------------------------------------------------
Total:                                       493.883 100.0%

Memory usage: 1.03 GiB
Date: Wed Jul 20 08:21:24 2022
