
  ___ ___ ___ _ _ _  
 |   |   |_  | | | | 
 | | | | | . | | | | 
 |__ |  _|___|_____|  22.1.0
 |___|_|             

User:   gabrielbirnbaum@Gabriels-MacBook-Pro.local
Date:   Sat Jul 30 09:02:59 2022
Arch:   x86_64
Pid:    89870
Python: 3.9.13
gpaw:   /Users/gabrielbirnbaum/PycharmProjects/nanolithia/venv/lib/python3.9/site-packages/gpaw
_gpaw:  /Users/gabrielbirnbaum/PycharmProjects/nanolithia/venv/lib/python3.9/site-packages/
        _gpaw.cpython-39-darwin.so
ase:    /Users/gabrielbirnbaum/PycharmProjects/nanolithia/venv/lib/python3.9/site-packages/ase (version 3.22.1)
numpy:  /Users/gabrielbirnbaum/PycharmProjects/nanolithia/venv/lib/python3.9/site-packages/numpy (version 1.23.0)
scipy:  /Users/gabrielbirnbaum/PycharmProjects/nanolithia/venv/lib/python3.9/site-packages/scipy (version 1.8.1)
libxc:  5.2.3
units:  Angstrom and eV
cores: 1
OpenMP: False
OMP_NUM_THREADS: 1

Input parameters:
  convergence: {density: 0.001,
                eigenstates: 0.0001,
                energy: 0.0002}
  kpts: {gamma: True,
         size: (4, 4, 4)}
  mode: {ecut: 500.0,
         name: pw}
  setups: {O: :p,0.33,0}
  spinpol: True
  xc: PBE

System changes: positions, numbers, cell, pbc, initial_charges, initial_magmoms 

Initialize ...

Li-setup:
  name: Lithium
  id: 830b4218f175192f93f959cfc0aad614
  Z: 3.0
  valence: 1
  core: 2
  charge: 0.0
  file: /Users/gabrielbirnbaum/dft_learning/DIR/gpaw-setups-0.9.20000/Li.PBE.gz
  compensation charges: gauss, rc=0.33, lmax=2
  cutoffs: 1.91(filt), 2.55(core),
  valence states:
                energy  radius
    2s(1.00)    -2.874   1.058
    2p(0.00)    -1.090   1.058
    *s          24.337   1.058

  Using partial waves for Li as LCAO basis

O-setup:
  name: Oxygen
  id: 32ecd46bf208036f09c70b0ec9a88b78
  Z: 8.0
  valence: 6
  core: 2
  charge: 0.0
  Hubbard U: 0.330000 eV (l=1, scale=False)
  file: /Users/gabrielbirnbaum/dft_learning/DIR/gpaw-setups-0.9.20000/O.PBE.gz
  compensation charges: gauss, rc=0.21, lmax=2
  cutoffs: 1.17(filt), 0.83(core),
  valence states:
                energy  radius
    2s(2.00)   -23.961   0.688
    2p(4.00)    -9.029   0.598
    *s           3.251   0.688
    *p          18.182   0.598
    *d           0.000   0.619

  Using partial waves for O as LCAO basis

Reference energy: -8568.984845

Spin-polarized calculation.
Magnetic moment: 0.000000

Convergence criteria:
 Maximum [total energy] change in last 3 cyles: 0.0002 eV / electron
 Maximum integral of absolute [dens]ity change: 0.001 electrons / valence electron
 Maximum integral of absolute [eigenst]ate change: 0.0001 eV^2 / valence electron
 Maximum number of scf [iter]ations: 333
 (Square brackets indicate name in SCF output, whereas a 'c' in
 the SCF output indicates the quantity has converged.)

Symmetries present (total): 4

  ( 1  0  0)  ( 1  0  0)  (-1  0  0)  (-1  0  0)
  ( 0  1  0)  ( 0 -1  0)  ( 0  1  0)  ( 0 -1  0)
  ( 0  0  1)  ( 0  0 -1)  ( 0  0  1)  ( 0  0 -1)

64 k-points: 4 x 4 x 4 Monkhorst-Pack grid + [1/8,1/8,1/8]
30 k-points in the irreducible part of the Brillouin zone
       k-points in crystal coordinates                weights
   0:     0.00000000    0.00000000    0.00000000          1/64
   1:     0.00000000    0.00000000    0.25000000          2/64
   2:     0.00000000    0.00000000    0.50000000          1/64
   3:     0.00000000    0.25000000   -0.25000000          2/64
   4:     0.00000000    0.25000000    0.00000000          2/64
   5:     0.00000000    0.25000000    0.25000000          2/64
   6:     0.00000000    0.25000000    0.50000000          2/64
   7:     0.00000000    0.50000000    0.00000000          1/64
   8:     0.00000000    0.50000000    0.25000000          2/64
   9:     0.00000000    0.50000000    0.50000000          1/64
          ...
  29:     0.50000000    0.50000000    0.50000000          1/64

Wave functions: Plane wave expansion
  Cutoff energy: 500.000 eV
  Number of coefficients (min, max): 1440, 1491
  Pulay-stress correction: 0.000000 eV/Ang^3 (de/decut=0.000000)
  Using Numpy's FFT
  ScaLapack parameters: grid=1x1, blocksize=None
  Wavefunction extrapolation:
    Improved wavefunction reuse through dual PAW basis 

Occupation numbers: Fermi-Dirac: width=0.1000 eV
 

Eigensolver
   Davidson(niter=2) 

Densities:
  Coarse grid: 16*21*27 grid
  Fine grid: 32*42*54 grid
  Total Charge: 0.000000 

Density mixing:
  Method: difference
  Backend: pulay
  Linear mixing parameter: 0.05
  Mixing with 5 old densities
  Damping of long wave oscillations: 50 

Hamiltonian:
  XC and Coulomb potentials evaluated on a 32*42*54 grid
  Using the PBE Exchange-Correlation functional
  External potential:
    NoExternalPotential
 

XC parameters: PBE with 2 nearest neighbor stencil

Memory estimate:
  Process memory now: 111.39 MiB
  Calculator: 42.99 MiB
    Density: 5.34 MiB
      Arrays: 2.42 MiB
      Localized functions: 1.95 MiB
      Mixer: 0.97 MiB
    Hamiltonian: 1.85 MiB
      Arrays: 1.80 MiB
      XC: 0.00 MiB
      Poisson: 0.00 MiB
      vbar: 0.05 MiB
    Wavefunctions: 35.80 MiB
      Arrays psit_nG: 27.30 MiB
      Eigensolver: 0.63 MiB
      Projections: 1.14 MiB
      Projectors: 5.70 MiB
      PW-descriptor: 1.03 MiB

Total number of cores used: 1

Number of atoms: 6
Number of atomic orbitals: 24
Number of bands in calculation: 20
Number of valence electrons: 26
Bands to converge: occupied

... initialized

Initializing position-dependent things.

Density initialized from atomic densities
Creating initial wave functions:
  20 bands from LCAO basis set

   .------.  
  /|      |  
 * | O    |  
 | O      |  
 | | Li   |  
 O |      |  
 | .--O---.  
 |/      /   
 Li-----*    

Positions:
   0 Li     1.480551    1.992835    2.448045    ( 0.0000,  0.0000,  0.0000)
   1 Li     0.000000    0.000000    0.000000    ( 0.0000,  0.0000,  0.0000)
   2 O      1.480551    2.518377    0.419218    ( 0.0000,  0.0000,  0.0000)
   3 O      1.480551    1.467292    4.476872    ( 0.0000,  0.0000,  0.0000)
   4 O      0.000000    0.525542    2.028827    ( 0.0000,  0.0000,  0.0000)
   5 O      0.000000    3.460127    2.867263    ( 0.0000,  0.0000,  0.0000)

Unit cell:
           periodic     x           y           z      points  spacing
  1. axis:    yes    2.961101    0.000000    0.000000    16     0.1851
  2. axis:    yes    0.000000    3.985669    0.000000    21     0.1898
  3. axis:    yes    0.000000    0.000000    4.896090    27     0.1813

  Lengths:   2.961101   3.985669   4.896090
  Angles:   90.000000  90.000000  90.000000

Effective grid spacing dv^(1/3) = 0.1854

     iter     time        total  log10-change:  magmom
                         energy  eigst   dens
iter:   1 09:03:32   -28.085415                  +0.0000
iter:   2 09:03:37   -27.990538  -1.74  -1.02    -0.0000
iter:   3 09:03:42   -27.374486  -1.57  -1.05    -0.0000
iter:   4 09:03:47   -27.402102  -2.14  -1.48    -0.0000
iter:   5 09:03:53   -27.366410  -2.63  -1.72    -0.0000
iter:   6 09:03:59   -27.367119  -3.97  -2.37    -0.0000
iter:   7 09:04:05   -27.370904c -3.13  -2.46    -0.0000
iter:   8 09:04:12   -27.367312c -4.21c -2.40    -0.0000
iter:   9 09:04:18   -27.367509c -5.73c -2.75    -0.0000
iter:  10 09:04:25   -27.367050c -3.56  -2.68    -0.0000
iter:  11 09:04:32   -27.366604c -4.28c -2.69    -0.0000
iter:  12 09:04:39   -27.366575c -6.44c -3.68c   -0.0000

Converged after 12 iterations.

Dipole moment: (0.000000, -0.000000, -0.000000) |e|*Ang

Total magnetic moment: (0.000000, 0.000000, -0.000000)
Local magnetic moments:
   0 Li ( 0.000000,  0.000000,  0.000000)
   1 Li ( 0.000000,  0.000000, -0.000000)
   2 O  ( 0.000000,  0.000000, -0.000000)
   3 O  ( 0.000000,  0.000000, -0.000000)
   4 O  ( 0.000000,  0.000000, -0.000000)
   5 O  ( 0.000000,  0.000000, -0.000000)

Energy contributions relative to reference atoms: (reference = -8568.984845)

Kinetic:        +20.459194
Potential:      -20.150624
External:        +0.000000
XC:             -27.744249
Entropy (-ST):   -0.162749
Local:           +0.150479
--------------------------
Free energy:    -27.447949
Extrapolated:   -27.366575

Spin contamination: 0.000000 electrons
Showing only first 2 kpts
                      Up                     Down
 Kpt  Band  Eigenvalues  Occupancy  Eigenvalues  Occupancy
  0    11      2.16865    0.13149      2.16865    0.13149
  0    12      2.41995    0.01212      2.41995    0.01212
  0    13      2.50890    0.00501      2.50890    0.00501
  0    14      8.43261    0.00000      8.43261    0.00000

  1    11      1.81041    0.84481      1.81041    0.84481
  1    12      2.43369    0.01058      2.43369    0.01058
  1    13      2.50729    0.00510      2.50729    0.00510
  1    14      8.12432    0.00000      8.12432    0.00000


Fermi level: 1.97986

No gap
Timing:                              incl.     excl.
-----------------------------------------------------------
Hamiltonian:                         0.209     0.001   0.0% |
 Atomic:                             0.159     0.004   0.0% |
  XC Correction:                     0.155     0.155   0.2% |
 Calculate atomic Hamiltonians:      0.011     0.011   0.0% |
 Communicate:                        0.000     0.000   0.0% |
 Initialize Hamiltonian:             0.000     0.000   0.0% |
 Poisson:                            0.000     0.000   0.0% |
 XC 3D grid:                         0.038     0.038   0.0% |
LCAO initialization:                27.764     0.025   0.0% |
 LCAO eigensolver:                  24.272     0.003   0.0% |
  Calculate projections:             0.004     0.004   0.0% |
  DenseAtomicCorrection:             0.010     0.010   0.0% |
  Distribute overlap matrix:         0.001     0.001   0.0% |
  Orbital Layouts:                   0.024     0.024   0.0% |
  Potential matrix:                 24.199    24.199  24.3% |---------|
  Sum over cells:                    0.029     0.029   0.0% |
 LCAO to grid:                       2.953     2.953   3.0% ||
 Set positions (LCAO WFS):           0.515     0.073   0.1% |
  Basic WFS set positions:           0.001     0.001   0.0% |
  Basis functions set positions:     0.000     0.000   0.0% |
  P tci:                             0.206     0.206   0.2% |
  ST tci:                            0.213     0.213   0.2% |
  mktci:                             0.022     0.022   0.0% |
PWDescriptor:                        0.007     0.007   0.0% |
SCF-cycle:                          70.935     0.252   0.3% |
 Davidson:                          61.186     4.614   4.6% |-|
  Apply H:                          13.421    13.223  13.3% |----|
   HMM T:                            0.198     0.198   0.2% |
  Subspace diag:                    13.982     0.051   0.1% |
   calc_h_matrix:                   13.410     0.343   0.3% |
    Apply H:                        13.066    12.867  12.9% |----|
     HMM T:                          0.199     0.199   0.2% |
   diagonalize:                      0.210     0.210   0.2% |
   rotate_psi:                       0.311     0.311   0.3% |
  calc. matrices:                   27.831     2.092   2.1% ||
   Apply H:                         25.739    25.354  25.5% |---------|
    HMM T:                           0.385     0.385   0.4% |
  diagonalize:                       0.774     0.774   0.8% |
  rotate_psi:                        0.564     0.564   0.6% |
 Density:                            6.254     0.000   0.0% |
  Atomic density matrices:           0.077     0.077   0.1% |
  Mix:                               0.181     0.181   0.2% |
  Multipole moments:                 0.002     0.002   0.0% |
  Pseudo density:                    5.994     5.970   6.0% |-|
   Symmetrize density:               0.024     0.024   0.0% |
 Hamiltonian:                        3.141     0.009   0.0% |
  Atomic:                            2.531     0.050   0.1% |
   XC Correction:                    2.481     2.481   2.5% ||
  Calculate atomic Hamiltonians:     0.090     0.090   0.1% |
  Communicate:                       0.000     0.000   0.0% |
  Poisson:                           0.003     0.003   0.0% |
  XC 3D grid:                        0.508     0.508   0.5% |
 Orthonormalize:                     0.103     0.004   0.0% |
  calc_s_matrix:                     0.021     0.021   0.0% |
  inverse-cholesky:                  0.005     0.005   0.0% |
  projections:                       0.061     0.061   0.1% |
  rotate_psi_s:                      0.011     0.011   0.0% |
Set symmetry:                        0.002     0.002   0.0% |
Other:                               0.606     0.606   0.6% |
-----------------------------------------------------------
Total:                                        99.523 100.0%

Memory usage: 293.04 MiB
Date: Sat Jul 30 09:04:39 2022
