
  ___ ___ ___ _ _ _  
 |   |   |_  | | | | 
 | | | | | . | | | | 
 |__ |  _|___|_____|  22.1.0
 |___|_|             

User:   gabrielbirnbaum@Gabriels-MacBook-Pro.local
Date:   Tue Jul 26 02:08:24 2022
Arch:   x86_64
Pid:    92584
Python: 3.9.13
gpaw:   /Users/gabrielbirnbaum/PycharmProjects/nanolithia/venv/lib/python3.9/site-packages/gpaw
_gpaw:  /Users/gabrielbirnbaum/PycharmProjects/nanolithia/venv/lib/python3.9/site-packages/
        _gpaw.cpython-39-darwin.so
ase:    /Users/gabrielbirnbaum/PycharmProjects/nanolithia/venv/lib/python3.9/site-packages/ase (version 3.22.1)
numpy:  /Users/gabrielbirnbaum/PycharmProjects/nanolithia/venv/lib/python3.9/site-packages/numpy (version 1.23.0)
scipy:  /Users/gabrielbirnbaum/PycharmProjects/nanolithia/venv/lib/python3.9/site-packages/scipy (version 1.8.1)
libxc:  5.2.3
units:  Angstrom and eV
cores: 1
OpenMP: False
OMP_NUM_THREADS: 1

Input parameters:
  convergence: {density: 0.001,
                eigenstates: 0.0001,
                energy: 0.0002}
  kpts: {gamma: True,
         size: (7, 7, 7)}
  mode: {ecut: 500.0,
         name: pw}
  setups: {O: :p,0.33,0}
  spinpol: True

System changes: positions, numbers, cell, pbc, initial_charges, initial_magmoms 

Initialize ...

Li-setup:
  name: Lithium
  id: b73562207f97a71b6967473b66fe8b65
  Z: 3.0
  valence: 1
  core: 2
  charge: 0.0
  file: /Users/gabrielbirnbaum/dft_learning/DIR/gpaw-setups-0.9.20000/Li.LDA.gz
  compensation charges: gauss, rc=0.33, lmax=2
  cutoffs: 1.91(filt), 2.55(core),
  valence states:
                energy  radius
    2s(1.00)    -2.874   1.058
    2p(0.00)    -1.126   1.058
    *s          24.338   1.058

  Using partial waves for Li as LCAO basis

O-setup:
  name: Oxygen
  id: 9b9d51c344dea68c822856295a461509
  Z: 8.0
  valence: 6
  core: 2
  charge: 0.0
  Hubbard U: 0.330000 eV (l=1, scale=False)
  file: /Users/gabrielbirnbaum/dft_learning/DIR/gpaw-setups-0.9.20000/O.LDA.gz
  compensation charges: gauss, rc=0.21, lmax=2
  cutoffs: 1.17(filt), 0.83(core),
  valence states:
                energy  radius
    2s(2.00)   -23.752   0.688
    2p(4.00)    -9.195   0.598
    *s           3.459   0.688
    *p          18.016   0.598
    *d           0.000   0.619

  Using partial waves for O as LCAO basis

Reference energy: -8510.849865

Spin-polarized calculation.
Magnetic moment: 0.000000

Convergence criteria:
 Maximum [total energy] change in last 3 cyles: 0.0002 eV / electron
 Maximum integral of absolute [dens]ity change: 0.001 electrons / valence electron
 Maximum integral of absolute [eigenst]ate change: 0.0001 eV^2 / valence electron
 Maximum number of scf [iter]ations: 333
 (Square brackets indicate name in SCF output, whereas a 'c' in
 the SCF output indicates the quantity has converged.)

Symmetries present (total): 4

  ( 1  0  0)  ( 1  0  0)  (-1  0  0)  (-1  0  0)
  ( 0  1  0)  ( 0 -1  0)  ( 0  1  0)  ( 0 -1  0)
  ( 0  0  1)  ( 0  0 -1)  ( 0  0  1)  ( 0  0 -1)

343 k-points: 7 x 7 x 7 Monkhorst-Pack grid
100 k-points in the irreducible part of the Brillouin zone
       k-points in crystal coordinates                weights
   0:     0.00000000    0.00000000    0.00000000          1/343
   1:     0.00000000    0.00000000    0.14285714          2/343
   2:     0.00000000    0.00000000    0.28571429          2/343
   3:     0.00000000    0.00000000    0.42857143          2/343
   4:     0.00000000    0.14285714   -0.42857143          2/343
   5:     0.00000000    0.14285714   -0.28571429          2/343
   6:     0.00000000    0.14285714   -0.14285714          2/343
   7:     0.00000000    0.14285714    0.00000000          2/343
   8:     0.00000000    0.14285714    0.14285714          2/343
   9:     0.00000000    0.14285714    0.28571429          2/343
          ...
  99:     0.42857143    0.42857143    0.42857143          4/343

Wave functions: Plane wave expansion
  Cutoff energy: 500.000 eV
  Number of coefficients (min, max): 1450, 1484
  Pulay-stress correction: 0.000000 eV/Ang^3 (de/decut=0.000000)
  Using Numpy's FFT
  ScaLapack parameters: grid=1x1, blocksize=None
  Wavefunction extrapolation:
    Improved wavefunction reuse through dual PAW basis 

Occupation numbers: Fermi-Dirac: width=0.1000 eV
 

Eigensolver
   Davidson(niter=2) 

Densities:
  Coarse grid: 16*21*27 grid
  Fine grid: 32*42*54 grid
  Total Charge: 0.000000 

Density mixing:
  Method: difference
  Backend: pulay
  Linear mixing parameter: 0.05
  Mixing with 5 old densities
  Damping of long wave oscillations: 50 

Hamiltonian:
  XC and Coulomb potentials evaluated on a 32*42*54 grid
  Using the LDA Exchange-Correlation functional
  External potential:
    NoExternalPotential
 

Memory estimate:
  Process memory now: 1387.89 MiB
  Calculator: 123.83 MiB
    Density: 5.34 MiB
      Arrays: 2.42 MiB
      Localized functions: 1.95 MiB
      Mixer: 0.97 MiB
    Hamiltonian: 1.85 MiB
      Arrays: 1.80 MiB
      XC: 0.00 MiB
      Poisson: 0.00 MiB
      vbar: 0.05 MiB
    Wavefunctions: 116.63 MiB
      Arrays psit_nG: 90.58 MiB
      Eigensolver: 0.63 MiB
      Projections: 3.78 MiB
      Projectors: 19.04 MiB
      PW-descriptor: 2.61 MiB

Total number of cores used: 1

Number of atoms: 6
Number of atomic orbitals: 24
Number of bands in calculation: 20
Number of valence electrons: 26
Bands to converge: occupied

... initialized

Initializing position-dependent things.

Density initialized from atomic densities
Creating initial wave functions:
  20 bands from LCAO basis set

   .------.  
  /|      |  
 * | O    |  
 | O      |  
 | | Li   |  
 O |      |  
 | .--O---.  
 |/      /   
 Li-----*    

Positions:
   0 Li     1.480551    1.992835    2.448045    ( 0.0000,  0.0000,  0.0000)
   1 Li     0.000000    0.000000    0.000000    ( 0.0000,  0.0000,  0.0000)
   2 O      1.480551    2.518377    0.419218    ( 0.0000,  0.0000,  0.0000)
   3 O      1.480551    1.467292    4.476872    ( 0.0000,  0.0000,  0.0000)
   4 O      0.000000    0.525542    2.028827    ( 0.0000,  0.0000,  0.0000)
   5 O      0.000000    3.460127    2.867263    ( 0.0000,  0.0000,  0.0000)

Unit cell:
           periodic     x           y           z      points  spacing
  1. axis:    yes    2.961101    0.000000    0.000000    16     0.1851
  2. axis:    yes    0.000000    3.985669    0.000000    21     0.1898
  3. axis:    yes    0.000000    0.000000    4.896090    27     0.1813

  Lengths:   2.961101   3.985669   4.896090
  Angles:   90.000000  90.000000  90.000000

Effective grid spacing dv^(1/3) = 0.1854

     iter     time        total  log10-change:  magmom
                         energy  eigst   dens
iter:   1 02:46:15   -31.346413                  +0.0000
iter:   2 02:47:26   -31.238747  -1.73  -1.03    +0.0000
iter:   3 02:48:39   -30.514072  -1.58  -1.07    +0.0000
iter:   4 02:49:54   -30.493877  -2.30  -1.50    +0.0000
iter:   5 02:51:10   -30.487595  -2.51  -1.70    +0.0000
iter:   6 02:52:29   -30.473018  -3.73  -1.96    +0.0000
iter:   7 02:53:40   -30.471568  -4.87c -2.26    +0.0000
iter:   8 02:54:43   -30.468728c -3.67  -2.34    +0.0000
iter:   9 02:55:58   -30.468645c -5.43c -2.92    +0.0000
iter:  10 02:57:14   -30.468689c -4.55c -3.02c   +0.0000

Converged after 10 iterations.

Dipole moment: (0.000000, 0.000000, 0.000000) |e|*Ang

Total magnetic moment: (0.000000, 0.000000, 0.000000)
Local magnetic moments:
   0 Li ( 0.000000,  0.000000,  0.000000)
   1 Li ( 0.000000,  0.000000,  0.000000)
   2 O  ( 0.000000,  0.000000,  0.000000)
   3 O  ( 0.000000,  0.000000,  0.000000)
   4 O  ( 0.000000,  0.000000,  0.000000)
   5 O  ( 0.000000,  0.000000,  0.000000)

Energy contributions relative to reference atoms: (reference = -8510.849865)

Kinetic:        +16.680631
Potential:      -17.236922
External:        +0.000000
XC:             -29.964781
Entropy (-ST):   -0.180962
Local:           +0.142864
--------------------------
Free energy:    -30.559170
Extrapolated:   -30.468689

Spin contamination: 0.000000 electrons
Showing only first 2 kpts
                      Up                     Down
 Kpt  Band  Eigenvalues  Occupancy  Eigenvalues  Occupancy
  0    11      1.85102    0.14133      1.85102    0.14133
  0    12      2.04142    0.02393      2.04142    0.02393
  0    13      2.13272    0.00974      2.13272    0.00974
  0    14      7.88637    0.00000      7.88637    0.00000

  1    11      1.71350    0.39434      1.71350    0.39434
  1    12      2.04211    0.02377      2.04211    0.02377
  1    13      2.13619    0.00942      2.13619    0.00942
  1    14      7.75885    0.00000      7.75885    0.00000


Fermi level: 1.67059

No gap
Timing:                              incl.     excl.
-----------------------------------------------------------
Hamiltonian:                         0.312     0.010   0.0% |
 Atomic:                             0.213     0.011   0.0% |
  XC Correction:                     0.202     0.202   0.0% |
 Calculate atomic Hamiltonians:      0.018     0.018   0.0% |
 Communicate:                        0.000     0.000   0.0% |
 Initialize Hamiltonian:             0.000     0.000   0.0% |
 Poisson:                            0.001     0.001   0.0% |
 XC 3D grid:                         0.070     0.070   0.0% |
LCAO initialization:              2200.674     1.043   0.0% |
 LCAO eigensolver:                2176.532     0.021   0.0% |
  Calculate projections:             0.027     0.027   0.0% |
  DenseAtomicCorrection:             0.080     0.080   0.0% |
  Distribute overlap matrix:         0.011     0.011   0.0% |
  Orbital Layouts:                   0.208     0.208   0.0% |
  Potential matrix:               2175.901  2175.901  74.3% |-----------------------------|
  Sum over cells:                    0.285     0.285   0.0% |
 LCAO to grid:                      17.841    17.841   0.6% |
 Set positions (LCAO WFS):           5.258     0.799   0.0% |
  Basic WFS set positions:           0.002     0.002   0.0% |
  Basis functions set positions:     0.000     0.000   0.0% |
  P tci:                             1.992     1.992   0.1% |
  ST tci:                            2.372     2.372   0.1% |
  mktci:                             0.094     0.094   0.0% |
PWDescriptor:                        0.206     0.206   0.0% |
SCF-cycle:                         726.073     2.604   0.1% |
 Davidson:                         656.282    45.023   1.5% ||
  Apply H:                         145.424   143.546   4.9% |-|
   HMM T:                            1.878     1.878   0.1% |
  Subspace diag:                   149.700     0.515   0.0% |
   calc_h_matrix:                  144.471     3.901   0.1% |
    Apply H:                       140.570   138.716   4.7% |-|
     HMM T:                          1.855     1.855   0.1% |
   diagonalize:                      1.580     1.580   0.1% |
   rotate_psi:                       3.133     3.133   0.1% |
  calc. matrices:                  301.917    35.149   1.2% |
   Apply H:                        266.768   263.212   9.0% |---|
    HMM T:                           3.555     3.555   0.1% |
  diagonalize:                       8.202     8.202   0.3% |
  rotate_psi:                        6.018     6.018   0.2% |
 Density:                           61.792     0.001   0.0% |
  Atomic density matrices:           0.655     0.655   0.0% |
  Mix:                               0.589     0.589   0.0% |
  Multipole moments:                 0.005     0.005   0.0% |
  Pseudo density:                   60.542    60.471   2.1% ||
   Symmetrize density:               0.071     0.071   0.0% |
 Hamiltonian:                        3.211     0.045   0.0% |
  Atomic:                            2.289     0.121   0.0% |
   XC Correction:                    2.169     2.169   0.1% |
  Calculate atomic Hamiltonians:     0.210     0.210   0.0% |
  Communicate:                       0.000     0.000   0.0% |
  Poisson:                           0.008     0.008   0.0% |
  XC 3D grid:                        0.659     0.659   0.0% |
 Orthonormalize:                     2.184     0.058   0.0% |
  calc_s_matrix:                     1.173     1.173   0.0% |
  inverse-cholesky:                  0.057     0.057   0.0% |
  projections:                       0.734     0.734   0.0% |
  rotate_psi_s:                      0.163     0.163   0.0% |
Set symmetry:                        0.023     0.023   0.0% |
Other:                               3.084     3.084   0.1% |
-----------------------------------------------------------
Total:                                      2930.372 100.0%

Memory usage: 1.37 GiB
Date: Tue Jul 26 02:57:15 2022
