
  ___ ___ ___ _ _ _  
 |   |   |_  | | | | 
 | | | | | . | | | | 
 |__ |  _|___|_____|  22.1.0
 |___|_|             

User:   gabrielbirnbaum@Gabriels-MacBook-Pro.local
Date:   Sat Jul 30 08:30:25 2022
Arch:   x86_64
Pid:    83778
Python: 3.9.13
gpaw:   /Users/gabrielbirnbaum/PycharmProjects/nanolithia/venv/lib/python3.9/site-packages/gpaw
_gpaw:  /Users/gabrielbirnbaum/PycharmProjects/nanolithia/venv/lib/python3.9/site-packages/
        _gpaw.cpython-39-darwin.so
ase:    /Users/gabrielbirnbaum/PycharmProjects/nanolithia/venv/lib/python3.9/site-packages/ase (version 3.22.1)
numpy:  /Users/gabrielbirnbaum/PycharmProjects/nanolithia/venv/lib/python3.9/site-packages/numpy (version 1.23.0)
scipy:  /Users/gabrielbirnbaum/PycharmProjects/nanolithia/venv/lib/python3.9/site-packages/scipy (version 1.8.1)
libxc:  5.2.3
units:  Angstrom and eV
cores: 1
OpenMP: False
OMP_NUM_THREADS: 1

Input parameters:
  convergence: {density: 0.001,
                eigenstates: 0.0001,
                energy: 0.0002}
  kpts: {gamma: True,
         size: (4, 4, 4)}
  mode: {ecut: 900.0000000000001,
         name: pw}
  setups: {O: :p,0.33,0}
  spinpol: True
  xc: PBE

System changes: positions, numbers, cell, pbc, initial_charges, initial_magmoms 

Initialize ...

Li-setup:
  name: Lithium
  id: 830b4218f175192f93f959cfc0aad614
  Z: 3.0
  valence: 1
  core: 2
  charge: 0.0
  file: /Users/gabrielbirnbaum/dft_learning/DIR/gpaw-setups-0.9.20000/Li.PBE.gz
  compensation charges: gauss, rc=0.33, lmax=2
  cutoffs: 1.91(filt), 2.55(core),
  valence states:
                energy  radius
    2s(1.00)    -2.874   1.058
    2p(0.00)    -1.090   1.058
    *s          24.337   1.058

  Using partial waves for Li as LCAO basis

O-setup:
  name: Oxygen
  id: 32ecd46bf208036f09c70b0ec9a88b78
  Z: 8.0
  valence: 6
  core: 2
  charge: 0.0
  Hubbard U: 0.330000 eV (l=1, scale=False)
  file: /Users/gabrielbirnbaum/dft_learning/DIR/gpaw-setups-0.9.20000/O.PBE.gz
  compensation charges: gauss, rc=0.21, lmax=2
  cutoffs: 1.17(filt), 0.83(core),
  valence states:
                energy  radius
    2s(2.00)   -23.961   0.688
    2p(4.00)    -9.029   0.598
    *s           3.251   0.688
    *p          18.182   0.598
    *d           0.000   0.619

  Using partial waves for O as LCAO basis

Reference energy: -8568.984845

Spin-polarized calculation.
Magnetic moment: 0.000000

Convergence criteria:
 Maximum [total energy] change in last 3 cyles: 0.0002 eV / electron
 Maximum integral of absolute [dens]ity change: 0.001 electrons / valence electron
 Maximum integral of absolute [eigenst]ate change: 0.0001 eV^2 / valence electron
 Maximum number of scf [iter]ations: 333
 (Square brackets indicate name in SCF output, whereas a 'c' in
 the SCF output indicates the quantity has converged.)

Symmetries present (total): 4

  ( 1  0  0)  ( 1  0  0)  (-1  0  0)  (-1  0  0)
  ( 0  1  0)  ( 0 -1  0)  ( 0  1  0)  ( 0 -1  0)
  ( 0  0  1)  ( 0  0 -1)  ( 0  0  1)  ( 0  0 -1)

64 k-points: 4 x 4 x 4 Monkhorst-Pack grid + [1/8,1/8,1/8]
30 k-points in the irreducible part of the Brillouin zone
       k-points in crystal coordinates                weights
   0:     0.00000000    0.00000000    0.00000000          1/64
   1:     0.00000000    0.00000000    0.25000000          2/64
   2:     0.00000000    0.00000000    0.50000000          1/64
   3:     0.00000000    0.25000000   -0.25000000          2/64
   4:     0.00000000    0.25000000    0.00000000          2/64
   5:     0.00000000    0.25000000    0.25000000          2/64
   6:     0.00000000    0.25000000    0.50000000          2/64
   7:     0.00000000    0.50000000    0.00000000          1/64
   8:     0.00000000    0.50000000    0.25000000          2/64
   9:     0.00000000    0.50000000    0.50000000          1/64
          ...
  29:     0.50000000    0.50000000    0.50000000          1/64

Wave functions: Plane wave expansion
  Cutoff energy: 900.000 eV
  Number of coefficients (min, max): 3527, 3580
  Pulay-stress correction: 0.000000 eV/Ang^3 (de/decut=0.000000)
  Using Numpy's FFT
  ScaLapack parameters: grid=1x1, blocksize=None
  Wavefunction extrapolation:
    Improved wavefunction reuse through dual PAW basis 

Occupation numbers: Fermi-Dirac: width=0.1000 eV
 

Eigensolver
   Davidson(niter=2) 

Densities:
  Coarse grid: 21*28*35 grid
  Fine grid: 42*56*70 grid
  Total Charge: 0.000000 

Density mixing:
  Method: difference
  Backend: pulay
  Linear mixing parameter: 0.05
  Mixing with 5 old densities
  Damping of long wave oscillations: 50 

Hamiltonian:
  XC and Coulomb potentials evaluated on a 42*56*70 grid
  Using the PBE Exchange-Correlation functional
  External potential:
    NoExternalPotential
 

XC parameters: PBE with 2 nearest neighbor stencil

Memory estimate:
  Process memory now: 564.75 MiB
  Calculator: 100.92 MiB
    Density: 12.40 MiB
      Arrays: 5.50 MiB
      Localized functions: 4.71 MiB
      Mixer: 2.20 MiB
    Hamiltonian: 4.20 MiB
      Arrays: 4.08 MiB
      XC: 0.00 MiB
      Poisson: 0.00 MiB
      vbar: 0.11 MiB
    Wavefunctions: 84.33 MiB
      Arrays psit_nG: 65.55 MiB
      Eigensolver: 1.43 MiB
      Projections: 1.14 MiB
      Projectors: 13.79 MiB
      PW-descriptor: 2.42 MiB

Total number of cores used: 1

Number of atoms: 6
Number of atomic orbitals: 24
Number of bands in calculation: 20
Number of valence electrons: 26
Bands to converge: occupied

... initialized

Initializing position-dependent things.

Density initialized from atomic densities
Creating initial wave functions:
  20 bands from LCAO basis set

   .------.  
  /|      |  
 * | O    |  
 | O      |  
 | | Li   |  
 O |      |  
 | .--O---.  
 |/      /   
 Li-----*    

Positions:
   0 Li     1.480551    1.992835    2.448045    ( 0.0000,  0.0000,  0.0000)
   1 Li     0.000000    0.000000    0.000000    ( 0.0000,  0.0000,  0.0000)
   2 O      1.480551    2.518377    0.419218    ( 0.0000,  0.0000,  0.0000)
   3 O      1.480551    1.467292    4.476872    ( 0.0000,  0.0000,  0.0000)
   4 O      0.000000    0.525542    2.028827    ( 0.0000,  0.0000,  0.0000)
   5 O      0.000000    3.460127    2.867263    ( 0.0000,  0.0000,  0.0000)

Unit cell:
           periodic     x           y           z      points  spacing
  1. axis:    yes    2.961101    0.000000    0.000000    21     0.1410
  2. axis:    yes    0.000000    3.985669    0.000000    28     0.1423
  3. axis:    yes    0.000000    0.000000    4.896090    35     0.1399

  Lengths:   2.961101   3.985669   4.896090
  Angles:   90.000000  90.000000  90.000000

Effective grid spacing dv^(1/3) = 0.1411

     iter     time        total  log10-change:  magmom
                         energy  eigst   dens
iter:   1 08:31:40   -29.868174                  +0.0000
iter:   2 08:31:51   -29.761373  -1.60  -1.02    +0.0000
iter:   3 08:32:01   -29.104359  -1.45  -1.05    +0.0000
iter:   4 08:32:12   -29.155674  -1.93  -1.46    +0.0000
iter:   5 08:32:23   -29.098222  -2.15  -1.67    +0.0000
iter:   6 08:32:33   -29.099214  -3.46  -2.29    +0.0000
iter:   7 08:32:44   -29.105172  -2.60  -2.30    -0.0000
iter:   8 08:32:54   -29.098356  -3.67  -2.25    -0.0000
iter:   9 08:33:05   -29.097443  -4.38c -2.60    -0.0000
iter:  10 08:33:16   -29.096934c -4.00c -2.70    -0.0000
iter:  11 08:33:27   -29.096921c -5.56c -3.66c   -0.0000

Converged after 11 iterations.

Dipole moment: (0.000000, -0.000000, 0.000000) |e|*Ang

Total magnetic moment: (0.000000, 0.000000, -0.000000)
Local magnetic moments:
   0 Li ( 0.000000,  0.000000,  0.000000)
   1 Li ( 0.000000,  0.000000, -0.000000)
   2 O  ( 0.000000,  0.000000,  0.000000)
   3 O  ( 0.000000,  0.000000,  0.000000)
   4 O  ( 0.000000,  0.000000, -0.000000)
   5 O  ( 0.000000,  0.000000, -0.000000)

Energy contributions relative to reference atoms: (reference = -8568.984845)

Kinetic:        +32.095950
Potential:      -33.699794
External:        +0.000000
XC:             -28.347938
Entropy (-ST):   -0.162442
Local:           +0.936081
--------------------------
Free energy:    -29.178142
Extrapolated:   -29.096921

Spin contamination: 0.000000 electrons
Showing only first 2 kpts
                      Up                     Down
 Kpt  Band  Eigenvalues  Occupancy  Eigenvalues  Occupancy
  0    11      2.14255    0.14408      2.14255    0.14408
  0    12      2.41148    0.01131      2.41148    0.01131
  0    13      2.50088    0.00466      2.50088    0.00466
  0    14      8.45238    0.00000      8.45238    0.00000

  1    11      1.80344    0.83332      1.80344    0.83332
  1    12      2.42871    0.00953      2.42871    0.00953
  1    13      2.49158    0.00511      2.49158    0.00511
  1    14      8.14410    0.00000      8.14410    0.00000


Fermi level: 1.96437

No gap
Timing:                              incl.     excl.
-----------------------------------------------------------
Hamiltonian:                         0.297     0.002   0.0% |
 Atomic:                             0.195     0.003   0.0% |
  XC Correction:                     0.191     0.191   0.1% |
 Calculate atomic Hamiltonians:      0.015     0.015   0.0% |
 Communicate:                        0.000     0.000   0.0% |
 Initialize Hamiltonian:             0.000     0.000   0.0% |
 Poisson:                            0.001     0.001   0.0% |
 XC 3D grid:                         0.084     0.084   0.0% |
LCAO initialization:                60.365     0.118   0.1% |
 LCAO eigensolver:                  54.262     0.003   0.0% |
  Calculate projections:             0.004     0.004   0.0% |
  DenseAtomicCorrection:             0.011     0.011   0.0% |
  Distribute overlap matrix:         0.001     0.001   0.0% |
  Orbital Layouts:                   0.025     0.025   0.0% |
  Potential matrix:                 54.188    54.188  29.8% |-----------|
  Sum over cells:                    0.030     0.030   0.0% |
 LCAO to grid:                       5.446     5.446   3.0% ||
 Set positions (LCAO WFS):           0.539     0.084   0.0% |
  Basic WFS set positions:           0.001     0.001   0.0% |
  Basis functions set positions:     0.000     0.000   0.0% |
  P tci:                             0.188     0.188   0.1% |
  ST tci:                            0.241     0.241   0.1% |
  mktci:                             0.025     0.025   0.0% |
PWDescriptor:                        0.021     0.021   0.0% |
SCF-cycle:                         120.394     0.308   0.2% |
 Davidson:                         106.747     9.525   5.2% |-|
  Apply H:                          23.719    23.089  12.7% |----|
   HMM T:                            0.630     0.630   0.3% |
  Subspace diag:                    24.166     0.044   0.0% |
   calc_h_matrix:                   23.371     0.495   0.3% |
    Apply H:                        22.875    22.608  12.4% |----|
     HMM T:                          0.267     0.267   0.1% |
   diagonalize:                      0.152     0.152   0.1% |
   rotate_psi:                       0.600     0.600   0.3% |
  calc. matrices:                   47.578     2.898   1.6% ||
   Apply H:                         44.680    44.057  24.2% |---------|
    HMM T:                           0.623     0.623   0.3% |
  diagonalize:                       0.635     0.635   0.3% |
  rotate_psi:                        1.124     1.124   0.6% |
 Density:                           10.136     0.000   0.0% |
  Atomic density matrices:           0.056     0.056   0.0% |
  Mix:                               0.371     0.371   0.2% |
  Multipole moments:                 0.001     0.001   0.0% |
  Pseudo density:                    9.707     9.668   5.3% |-|
   Symmetrize density:               0.039     0.039   0.0% |
 Hamiltonian:                        2.858     0.021   0.0% |
  Atomic:                            1.816     0.031   0.0% |
   XC Correction:                    1.785     1.785   1.0% |
  Calculate atomic Hamiltonians:     0.125     0.125   0.1% |
  Communicate:                       0.000     0.000   0.0% |
  Poisson:                           0.006     0.006   0.0% |
  XC 3D grid:                        0.891     0.891   0.5% |
 Orthonormalize:                     0.345     0.006   0.0% |
  calc_s_matrix:                     0.045     0.045   0.0% |
  inverse-cholesky:                  0.007     0.007   0.0% |
  projections:                       0.249     0.249   0.1% |
  rotate_psi_s:                      0.038     0.038   0.0% |
Set symmetry:                        0.002     0.002   0.0% |
Other:                               1.008     1.008   0.6% |
-----------------------------------------------------------
Total:                                       182.088 100.0%

Memory usage: 648.76 MiB
Date: Sat Jul 30 08:33:27 2022
