
  ___ ___ ___ _ _ _  
 |   |   |_  | | | | 
 | | | | | . | | | | 
 |__ |  _|___|_____|  22.1.0
 |___|_|             

User:   gabrielbirnbaum@Gabriels-MacBook-Pro.local
Date:   Tue Jul 26 08:34:28 2022
Arch:   x86_64
Pid:    92584
Python: 3.9.13
gpaw:   /Users/gabrielbirnbaum/PycharmProjects/nanolithia/venv/lib/python3.9/site-packages/gpaw
_gpaw:  /Users/gabrielbirnbaum/PycharmProjects/nanolithia/venv/lib/python3.9/site-packages/
        _gpaw.cpython-39-darwin.so
ase:    /Users/gabrielbirnbaum/PycharmProjects/nanolithia/venv/lib/python3.9/site-packages/ase (version 3.22.1)
numpy:  /Users/gabrielbirnbaum/PycharmProjects/nanolithia/venv/lib/python3.9/site-packages/numpy (version 1.23.0)
scipy:  /Users/gabrielbirnbaum/PycharmProjects/nanolithia/venv/lib/python3.9/site-packages/scipy (version 1.8.1)
libxc:  5.2.3
units:  Angstrom and eV
cores: 1
OpenMP: False
OMP_NUM_THREADS: 1

Input parameters:
  convergence: {density: 0.001,
                eigenstates: 0.0001,
                energy: 0.0002}
  kpts: {gamma: True,
         size: (11, 11, 11)}
  mode: {ecut: 500.0,
         name: pw}
  setups: {O: :p,0.33,0}
  spinpol: True

System changes: positions, numbers, cell, pbc, initial_charges, initial_magmoms 

Initialize ...

Li-setup:
  name: Lithium
  id: b73562207f97a71b6967473b66fe8b65
  Z: 3.0
  valence: 1
  core: 2
  charge: 0.0
  file: /Users/gabrielbirnbaum/dft_learning/DIR/gpaw-setups-0.9.20000/Li.LDA.gz
  compensation charges: gauss, rc=0.33, lmax=2
  cutoffs: 1.91(filt), 2.55(core),
  valence states:
                energy  radius
    2s(1.00)    -2.874   1.058
    2p(0.00)    -1.126   1.058
    *s          24.338   1.058

  Using partial waves for Li as LCAO basis

O-setup:
  name: Oxygen
  id: 9b9d51c344dea68c822856295a461509
  Z: 8.0
  valence: 6
  core: 2
  charge: 0.0
  Hubbard U: 0.330000 eV (l=1, scale=False)
  file: /Users/gabrielbirnbaum/dft_learning/DIR/gpaw-setups-0.9.20000/O.LDA.gz
  compensation charges: gauss, rc=0.21, lmax=2
  cutoffs: 1.17(filt), 0.83(core),
  valence states:
                energy  radius
    2s(2.00)   -23.752   0.688
    2p(4.00)    -9.195   0.598
    *s           3.459   0.688
    *p          18.016   0.598
    *d           0.000   0.619

  Using partial waves for O as LCAO basis

Reference energy: -8510.849865

Spin-polarized calculation.
Magnetic moment: 0.000000

Convergence criteria:
 Maximum [total energy] change in last 3 cyles: 0.0002 eV / electron
 Maximum integral of absolute [dens]ity change: 0.001 electrons / valence electron
 Maximum integral of absolute [eigenst]ate change: 0.0001 eV^2 / valence electron
 Maximum number of scf [iter]ations: 333
 (Square brackets indicate name in SCF output, whereas a 'c' in
 the SCF output indicates the quantity has converged.)

Symmetries present (total): 4

  ( 1  0  0)  ( 1  0  0)  (-1  0  0)  (-1  0  0)
  ( 0  1  0)  ( 0 -1  0)  ( 0  1  0)  ( 0 -1  0)
  ( 0  0  1)  ( 0  0 -1)  ( 0  0  1)  ( 0  0 -1)

1331 k-points: 11 x 11 x 11 Monkhorst-Pack grid
366 k-points in the irreducible part of the Brillouin zone
       k-points in crystal coordinates                weights
   0:     0.00000000    0.00000000    0.00000000          1/1331
   1:     0.00000000    0.00000000    0.09090909          2/1331
   2:     0.00000000    0.00000000    0.18181818          2/1331
   3:     0.00000000    0.00000000    0.27272727          2/1331
   4:     0.00000000    0.00000000    0.36363636          2/1331
   5:     0.00000000    0.00000000    0.45454545          2/1331
   6:     0.00000000    0.09090909   -0.45454545          2/1331
   7:     0.00000000    0.09090909   -0.36363636          2/1331
   8:     0.00000000    0.09090909   -0.27272727          2/1331
   9:     0.00000000    0.09090909   -0.18181818          2/1331
          ...
 365:     0.45454545    0.45454545    0.45454545          4/1331

Wave functions: Plane wave expansion
  Cutoff energy: 500.000 eV
  Number of coefficients (min, max): 1446, 1487
  Pulay-stress correction: 0.000000 eV/Ang^3 (de/decut=0.000000)
  Using Numpy's FFT
  ScaLapack parameters: grid=1x1, blocksize=None
  Wavefunction extrapolation:
    Improved wavefunction reuse through dual PAW basis 

Occupation numbers: Fermi-Dirac: width=0.1000 eV
 

Eigensolver
   Davidson(niter=2) 

Densities:
  Coarse grid: 16*21*27 grid
  Fine grid: 32*42*54 grid
  Total Charge: 0.000000 

Density mixing:
  Method: difference
  Backend: pulay
  Linear mixing parameter: 0.05
  Mixing with 5 old densities
  Damping of long wave oscillations: 50 

Hamiltonian:
  XC and Coulomb potentials evaluated on a 32*42*54 grid
  Using the LDA Exchange-Correlation functional
  External potential:
    NoExternalPotential
 

Memory estimate:
  Process memory now: 1464.25 MiB
  Calculator: 432.16 MiB
    Density: 5.34 MiB
      Arrays: 2.42 MiB
      Localized functions: 1.95 MiB
      Mixer: 0.97 MiB
    Hamiltonian: 1.85 MiB
      Arrays: 1.80 MiB
      XC: 0.00 MiB
      Poisson: 0.00 MiB
      vbar: 0.05 MiB
    Wavefunctions: 424.97 MiB
      Arrays psit_nG: 332.18 MiB
      Eigensolver: 0.63 MiB
      Projections: 13.85 MiB
      Projectors: 69.66 MiB
      PW-descriptor: 8.65 MiB

Total number of cores used: 1

Number of atoms: 6
Number of atomic orbitals: 24
Number of bands in calculation: 20
Number of valence electrons: 26
Bands to converge: occupied

... initialized

Initializing position-dependent things.

Density initialized from atomic densities
Creating initial wave functions:
  20 bands from LCAO basis set

   .------.  
  /|      |  
 * | O    |  
 | O      |  
 | | Li   |  
 O |      |  
 | .--O---.  
 |/      /   
 Li-----*    

Positions:
   0 Li     1.480551    1.992835    2.448045    ( 0.0000,  0.0000,  0.0000)
   1 Li     0.000000    0.000000    0.000000    ( 0.0000,  0.0000,  0.0000)
   2 O      1.480551    2.518377    0.419218    ( 0.0000,  0.0000,  0.0000)
   3 O      1.480551    1.467292    4.476872    ( 0.0000,  0.0000,  0.0000)
   4 O      0.000000    0.525542    2.028827    ( 0.0000,  0.0000,  0.0000)
   5 O      0.000000    3.460127    2.867263    ( 0.0000,  0.0000,  0.0000)

Unit cell:
           periodic     x           y           z      points  spacing
  1. axis:    yes    2.961101    0.000000    0.000000    16     0.1851
  2. axis:    yes    0.000000    3.985669    0.000000    21     0.1898
  3. axis:    yes    0.000000    0.000000    4.896090    27     0.1813

  Lengths:   2.961101   3.985669   4.896090
  Angles:   90.000000  90.000000  90.000000

Effective grid spacing dv^(1/3) = 0.1854

     iter     time        total  log10-change:  magmom
                         energy  eigst   dens
iter:   1 08:41:11   -31.340264                  +0.0000
iter:   2 08:57:25   -31.233807  -1.73  -1.03    +0.0000
iter:   3 08:58:26   -30.519661  -1.59  -1.07    +0.0000
iter:   4 08:59:28   -30.501226  -2.27  -1.50    +0.0000
iter:   5 09:00:30   -30.480043  -2.64  -1.71    +0.0000
iter:   6 09:01:33   -30.474577  -3.82  -2.15    +0.0000
iter:   7 09:02:36   -30.473395  -4.23c -2.48    +0.0000
iter:   8 09:03:40   -30.473490c -4.51c -2.77    +0.0000
iter:   9 09:04:43   -30.473372c -5.15c -2.96    +0.0000
iter:  10 09:05:49   -30.473216c -5.53c -3.21c   +0.0000

Converged after 10 iterations.

Dipole moment: (0.000000, -0.000000, 0.000000) |e|*Ang

Total magnetic moment: (0.000000, 0.000000, 0.000000)
Local magnetic moments:
   0 Li ( 0.000000,  0.000000,  0.000000)
   1 Li ( 0.000000,  0.000000,  0.000000)
   2 O  ( 0.000000,  0.000000,  0.000000)
   3 O  ( 0.000000,  0.000000,  0.000000)
   4 O  ( 0.000000,  0.000000,  0.000000)
   5 O  ( 0.000000,  0.000000,  0.000000)

Energy contributions relative to reference atoms: (reference = -8510.849865)

Kinetic:        +17.100730
Potential:      -17.637005
External:        +0.000000
XC:             -30.006958
Entropy (-ST):   -0.175486
Local:           +0.157760
--------------------------
Free energy:    -30.560959
Extrapolated:   -30.473216

Spin contamination: 0.000000 electrons
Showing only first 2 kpts
                      Up                     Down
 Kpt  Band  Eigenvalues  Occupancy  Eigenvalues  Occupancy
  0    11      1.85546    0.13454      1.85546    0.13454
  0    12      2.05085    0.02156      2.05085    0.02156
  0    13      2.14224    0.00876      2.14224    0.00876
  0    14      7.89262    0.00000      7.89262    0.00000

  1    11      1.79746    0.21732      1.79746    0.21732
  1    12      2.05340    0.02102      2.05340    0.02102
  1    13      2.14419    0.00859      2.14419    0.00859
  1    14      7.83754    0.00000      7.83754    0.00000


Fermi level: 1.66932

No gap
Timing:                              incl.     excl.
-----------------------------------------------------------
Hamiltonian:                         0.075     0.001   0.0% |
 Atomic:                             0.055     0.003   0.0% |
  XC Correction:                     0.052     0.052   0.0% |
 Calculate atomic Hamiltonians:      0.005     0.005   0.0% |
 Communicate:                        0.000     0.000   0.0% |
 Initialize Hamiltonian:             0.000     0.000   0.0% |
 Poisson:                            0.000     0.000   0.0% |
 XC 3D grid:                         0.014     0.014   0.0% |
LCAO initialization:               345.363     0.045   0.0% |
 LCAO eigensolver:                 304.847     0.034   0.0% |
  Calculate projections:             0.041     0.041   0.0% |
  DenseAtomicCorrection:             0.122     0.122   0.0% |
  Distribute overlap matrix:         0.017     0.017   0.0% |
  Orbital Layouts:                   0.291     0.291   0.0% |
  Potential matrix:                303.861   303.861  16.2% |-----|
  Sum over cells:                    0.482     0.482   0.0% |
 LCAO to grid:                      36.311    36.311   1.9% ||
 Set positions (LCAO WFS):           4.159     0.610   0.0% |
  Basic WFS set positions:           0.001     0.001   0.0% |
  Basis functions set positions:     0.000     0.000   0.0% |
  P tci:                             1.618     1.618   0.1% |
  ST tci:                            1.907     1.907   0.1% |
  mktci:                             0.024     0.024   0.0% |
PWDescriptor:                        0.238     0.238   0.0% |
SCF-cycle:                        1533.969     2.163   0.1% |
 Davidson:                        1480.082    44.249   2.4% ||
  Apply H:                         304.529   302.671  16.1% |-----|
   HMM T:                            1.858     1.858   0.1% |
  Subspace diag:                   136.639     0.501   0.0% |
   calc_h_matrix:                  131.401     3.496   0.2% |
    Apply H:                       127.906   126.028   6.7% |--|
     HMM T:                          1.878     1.878   0.1% |
   diagonalize:                      1.705     1.705   0.1% |
   rotate_psi:                       3.031     3.031   0.2% |
  calc. matrices:                  980.317    50.480   2.7% ||
   Apply H:                        929.837   926.219  49.2% |-------------------|
    HMM T:                           3.618     3.618   0.2% |
  diagonalize:                       8.847     8.847   0.5% |
  rotate_psi:                        5.501     5.501   0.3% |
 Density:                           49.345     0.000   0.0% |
  Atomic density matrices:           0.558     0.558   0.0% |
  Mix:                               0.130     0.130   0.0% |
  Multipole moments:                 0.001     0.001   0.0% |
  Pseudo density:                   48.656    48.641   2.6% ||
   Symmetrize density:               0.016     0.016   0.0% |
 Hamiltonian:                        0.769     0.008   0.0% |
  Atomic:                            0.559     0.031   0.0% |
   XC Correction:                    0.528     0.528   0.0% |
  Calculate atomic Hamiltonians:     0.046     0.046   0.0% |
  Communicate:                       0.000     0.000   0.0% |
  Poisson:                           0.002     0.002   0.0% |
  XC 3D grid:                        0.155     0.155   0.0% |
 Orthonormalize:                     1.609     0.046   0.0% |
  calc_s_matrix:                     0.753     0.753   0.0% |
  inverse-cholesky:                  0.053     0.053   0.0% |
  projections:                       0.621     0.621   0.0% |
  rotate_psi_s:                      0.136     0.136   0.0% |
Set symmetry:                        0.023     0.023   0.0% |
Other:                               1.737     1.737   0.1% |
-----------------------------------------------------------
Total:                                      1881.405 100.0%

Memory usage: 1.49 GiB
Date: Tue Jul 26 09:05:50 2022
