
  ___ ___ ___ _ _ _  
 |   |   |_  | | | | 
 | | | | | . | | | | 
 |__ |  _|___|_____|  22.1.0
 |___|_|             

User:   gabrielbirnbaum@Gabriels-MacBook-Pro.local
Date:   Thu Jul 21 09:28:44 2022
Arch:   x86_64
Pid:    36613
Python: 3.9.13
gpaw:   /Users/gabrielbirnbaum/PycharmProjects/nanolithia/venv/lib/python3.9/site-packages/gpaw
_gpaw:  /Users/gabrielbirnbaum/PycharmProjects/nanolithia/venv/lib/python3.9/site-packages/
        _gpaw.cpython-39-darwin.so
ase:    /Users/gabrielbirnbaum/PycharmProjects/nanolithia/venv/lib/python3.9/site-packages/ase (version 3.22.1)
numpy:  /Users/gabrielbirnbaum/PycharmProjects/nanolithia/venv/lib/python3.9/site-packages/numpy (version 1.23.0)
scipy:  /Users/gabrielbirnbaum/PycharmProjects/nanolithia/venv/lib/python3.9/site-packages/scipy (version 1.8.1)
libxc:  5.2.3
units:  Angstrom and eV
cores: 1
OpenMP: False
OMP_NUM_THREADS: 1

Input parameters:
  convergence: {density: 0.001,
                eigenstates: 0.0001,
                energy: 0.0002}
  kpts: {gamma: True,
         size: (8, 8, 8)}
  mode: {ecut: 500.0,
         name: pw}
  setups: {O: :p,0.33,0}
  spinpol: True
  xc: PBE

System changes: positions, numbers, cell, pbc, initial_charges, initial_magmoms 

Initialize ...

Li-setup:
  name: Lithium
  id: 830b4218f175192f93f959cfc0aad614
  Z: 3.0
  valence: 1
  core: 2
  charge: 0.0
  file: /Users/gabrielbirnbaum/dft_learning/DIR/gpaw-setups-0.9.20000/Li.PBE.gz
  compensation charges: gauss, rc=0.33, lmax=2
  cutoffs: 1.91(filt), 2.55(core),
  valence states:
                energy  radius
    2s(1.00)    -2.874   1.058
    2p(0.00)    -1.090   1.058
    *s          24.337   1.058

  Using partial waves for Li as LCAO basis

O-setup:
  name: Oxygen
  id: 32ecd46bf208036f09c70b0ec9a88b78
  Z: 8.0
  valence: 6
  core: 2
  charge: 0.0
  Hubbard U: 0.330000 eV (l=1, scale=False)
  file: /Users/gabrielbirnbaum/dft_learning/DIR/gpaw-setups-0.9.20000/O.PBE.gz
  compensation charges: gauss, rc=0.21, lmax=2
  cutoffs: 1.17(filt), 0.83(core),
  valence states:
                energy  radius
    2s(2.00)   -23.961   0.688
    2p(4.00)    -9.029   0.598
    *s           3.251   0.688
    *p          18.182   0.598
    *d           0.000   0.619

  Using partial waves for O as LCAO basis

Reference energy: -12650.689447

Spin-polarized calculation.
Magnetic moment: 0.000000

Convergence criteria:
 Maximum [total energy] change in last 3 cyles: 0.0002 eV / electron
 Maximum integral of absolute [dens]ity change: 0.001 electrons / valence electron
 Maximum integral of absolute [eigenst]ate change: 0.0001 eV^2 / valence electron
 Maximum number of scf [iter]ations: 333
 (Square brackets indicate name in SCF output, whereas a 'c' in
 the SCF output indicates the quantity has converged.)

Symmetries present (total): 4

  ( 1  0  0)  ( 1  0  0)  (-1  0  0)  (-1  0  0)
  ( 0  1  0)  ( 0 -1  0)  ( 0  1  0)  ( 0 -1  0)
  ( 0  0  1)  ( 0  0  1)  ( 0  0  1)  ( 0  0  1)

512 k-points: 8 x 8 x 8 Monkhorst-Pack grid + [1/16,1/16,1/16]
125 k-points in the irreducible part of the Brillouin zone
       k-points in crystal coordinates                weights
   0:     0.00000000    0.00000000    0.00000000          1/512
   1:     0.00000000    0.00000000    0.12500000          2/512
   2:     0.00000000    0.00000000    0.25000000          2/512
   3:     0.00000000    0.00000000    0.37500000          2/512
   4:     0.00000000    0.00000000    0.50000000          1/512
   5:     0.00000000    0.12500000    0.00000000          2/512
   6:     0.00000000    0.12500000    0.12500000          4/512
   7:     0.00000000    0.12500000    0.25000000          4/512
   8:     0.00000000    0.12500000    0.37500000          4/512
   9:     0.00000000    0.12500000    0.50000000          2/512
          ...
 124:     0.50000000    0.50000000    0.50000000          1/512

Wave functions: Plane wave expansion
  Cutoff energy: 500.000 eV
  Number of coefficients (min, max): 2150, 2200
  Pulay-stress correction: 0.000000 eV/Ang^3 (de/decut=0.000000)
  Using Numpy's FFT
  ScaLapack parameters: grid=1x1, blocksize=None
  Wavefunction extrapolation:
    Improved wavefunction reuse through dual PAW basis 

Occupation numbers: Fermi-Dirac: width=0.1000 eV
 

Eigensolver
   Davidson(niter=2) 

Densities:
  Coarse grid: 18*27*30 grid
  Fine grid: 36*54*60 grid
  Total Charge: 0.000000 

Density mixing:
  Method: difference
  Backend: pulay
  Linear mixing parameter: 0.05
  Mixing with 5 old densities
  Damping of long wave oscillations: 50 

Hamiltonian:
  XC and Coulomb potentials evaluated on a 36*54*60 grid
  Using the PBE Exchange-Correlation functional
  External potential:
    NoExternalPotential
 

XC parameters: PBE with 2 nearest neighbor stencil

Memory estimate:
  Process memory now: 121.39 MiB
  Calculator: 288.16 MiB
    Density: 8.34 MiB
      Arrays: 3.89 MiB
      Localized functions: 2.89 MiB
      Mixer: 1.56 MiB
    Hamiltonian: 2.96 MiB
      Arrays: 2.89 MiB
      XC: 0.00 MiB
      Poisson: 0.00 MiB
      vbar: 0.07 MiB
    Wavefunctions: 276.86 MiB
      Arrays psit_nG: 226.59 MiB
      Eigensolver: 1.19 MiB
      Projections: 9.06 MiB
      Projectors: 35.26 MiB
      PW-descriptor: 4.75 MiB

Total number of cores used: 1

Number of atoms: 8
Number of atomic orbitals: 32
Number of bands in calculation: 27
Number of valence electrons: 38
Bands to converge: occupied

... initialized

Initializing position-dependent things.

Density initialized from atomic densities
Creating initial wave functions:
  27 bands from LCAO basis set

    .-------.  
   /|       |  
  / |  Li   |  
 O  |  O    |  
 |  |       |  
 |  | OO    |  
 |  |       |  
 LiO.-------.  
 |O/       /   
 |/       /    
 *-------*     

Positions:
   0 Li     0.000000    0.000000    2.625559    ( 0.0000,  0.0000,  0.0000)
   1 Li     1.581569    2.492664    5.341449    ( 0.0000,  0.0000,  0.0000)
   2 O      0.000000    0.000000    5.351286    ( 0.0000,  0.0000,  0.0000)
   3 O      1.581569    3.620624    3.398252    ( 0.0000,  0.0000,  0.0000)
   4 O      1.581569    1.364704    3.398252    ( 0.0000,  0.0000,  0.0000)
   5 O      1.581569    2.492664    2.635396    ( 0.0000,  0.0000,  0.0000)
   6 O      0.000000    1.127960    0.682362    ( 0.0000,  0.0000,  0.0000)
   7 O      0.000000    3.857368    0.682362    ( 0.0000,  0.0000,  0.0000)

Unit cell:
           periodic     x           y           z      points  spacing
  1. axis:    yes    3.163138    0.000000    0.000000    18     0.1757
  2. axis:    yes    0.000000    4.985328    0.000000    27     0.1846
  3. axis:    yes    0.000000    0.000000    5.431780    30     0.1811

  Lengths:   3.163138   4.985328   5.431780
  Angles:   90.000000  90.000000  90.000000

Effective grid spacing dv^(1/3) = 0.1804

     iter     time        total  log10-change:  magmom
                         energy  eigst   dens
iter:   1 09:32:05   -38.700260                  +0.0000
iter:   2 09:32:52   -37.899722  -1.70  -0.95    +0.0000
iter:   3 09:33:41   -36.283026  -1.35  -0.99    +0.0000
iter:   4 09:34:31   -36.222174  -2.64  -1.20    +0.0000
iter:   5 09:35:22   -35.940078  -1.66  -1.23    +0.0000
iter:   6 09:36:11   -35.906927  -3.04  -1.90    +0.0000
iter:   7 09:37:00   -35.926348  -2.43  -1.99    +0.0000
iter:   8 09:37:50   -35.883577  -3.06  -1.98    +0.0000
iter:   9 09:38:43   -35.883477  -4.32c -2.74    +0.0000
iter:  10 09:39:32   -35.883752c -4.96c -2.84    +0.0000
iter:  11 09:40:20   -35.883611c -5.49c -3.25c   +0.0000

Converged after 11 iterations.

Dipole moment: (-0.000000, 0.000000, 1.578120) |e|*Ang

Total magnetic moment: (0.000000, 0.000000, 0.000000)
Local magnetic moments:
   0 Li ( 0.000000,  0.000000,  0.000000)
   1 Li ( 0.000000,  0.000000, -0.000000)
   2 O  ( 0.000000,  0.000000, -0.000000)
   3 O  ( 0.000000,  0.000000,  0.000000)
   4 O  ( 0.000000,  0.000000,  0.000000)
   5 O  ( 0.000000,  0.000000,  0.000000)
   6 O  ( 0.000000,  0.000000, -0.000000)
   7 O  ( 0.000000,  0.000000, -0.000000)

Energy contributions relative to reference atoms: (reference = -12650.689447)

Kinetic:        +25.499791
Potential:      -25.267569
External:        +0.000000
XC:             -36.311223
Entropy (-ST):   -0.122652
Local:           +0.256715
--------------------------
Free energy:    -35.944937
Extrapolated:   -35.883611

Spin contamination: 0.000000 electrons
Showing only first 2 kpts
                      Up                     Down
 Kpt  Band  Eigenvalues  Occupancy  Eigenvalues  Occupancy
  0    17      0.46896    0.99999      0.46896    0.99999
  0    18      1.79532    0.20163      1.79532    0.20163
  0    19      2.12383    0.00937      2.12383    0.00937
  0    20      5.33849    0.00000      5.33849    0.00000

  1    17      0.42774    1.00000      0.42774    1.00000
  1    18      1.80417    0.18777      1.80417    0.18777
  1    19      2.11189    0.01054      2.11189    0.01054
  1    20      5.38806    0.00000      5.38806    0.00000


Fermi level: 1.65771

No gap
Timing:                              incl.     excl.
-----------------------------------------------------------
Hamiltonian:                         0.291     0.001   0.0% |
 Atomic:                             0.220     0.004   0.0% |
  XC Correction:                     0.215     0.215   0.0% |
 Calculate atomic Hamiltonians:      0.015     0.015   0.0% |
 Communicate:                        0.000     0.000   0.0% |
 Initialize Hamiltonian:             0.000     0.000   0.0% |
 Poisson:                            0.000     0.000   0.0% |
 XC 3D grid:                         0.054     0.054   0.0% |
LCAO initialization:               156.498     0.029   0.0% |
 LCAO eigensolver:                 129.195     0.012   0.0% |
  Calculate projections:             0.020     0.020   0.0% |
  DenseAtomicCorrection:             0.050     0.050   0.0% |
  Distribute overlap matrix:         0.006     0.006   0.0% |
  Orbital Layouts:                   0.127     0.127   0.0% |
  Potential matrix:                128.867   128.867  18.5% |------|
  Sum over cells:                    0.113     0.113   0.0% |
 LCAO to grid:                      25.287    25.287   3.6% ||
 Set positions (LCAO WFS):           1.986     0.254   0.0% |
  Basic WFS set positions:           0.001     0.001   0.0% |
  Basis functions set positions:     0.000     0.000   0.0% |
  P tci:                             0.854     0.854   0.1% |
  ST tci:                            0.850     0.850   0.1% |
  mktci:                             0.027     0.027   0.0% |
PWDescriptor:                        0.041     0.041   0.0% |
SCF-cycle:                         538.450     0.823   0.1% |
 Davidson:                         491.727    34.683   5.0% |-|
  Apply H:                         106.509   105.411  15.1% |-----|
   HMM T:                            1.098     1.098   0.2% |
  Subspace diag:                   117.670     0.196   0.0% |
   calc_h_matrix:                  113.961     2.380   0.3% |
    Apply H:                       111.581   110.457  15.9% |-----|
     HMM T:                          1.124     1.124   0.2% |
   diagonalize:                      0.909     0.909   0.1% |
   rotate_psi:                       2.604     2.604   0.4% |
  calc. matrices:                  222.907    14.649   2.1% ||
   Apply H:                        208.258   205.855  29.6% |-----------|
    HMM T:                           2.403     2.403   0.3% |
  diagonalize:                       5.115     5.115   0.7% |
  rotate_psi:                        4.842     4.842   0.7% |
 Density:                           41.835     0.000   0.0% |
  Atomic density matrices:           0.289     0.289   0.0% |
  Mix:                               0.313     0.313   0.0% |
  Multipole moments:                 0.002     0.002   0.0% |
  Pseudo density:                   41.232    41.209   5.9% |-|
   Symmetrize density:               0.023     0.023   0.0% |
 Hamiltonian:                        3.249     0.010   0.0% |
  Atomic:                            2.400     0.048   0.0% |
   XC Correction:                    2.351     2.351   0.3% |
  Calculate atomic Hamiltonians:     0.150     0.150   0.0% |
  Communicate:                       0.000     0.000   0.0% |
  Poisson:                           0.004     0.004   0.0% |
  XC 3D grid:                        0.686     0.686   0.1% |
 Orthonormalize:                     0.816     0.017   0.0% |
  calc_s_matrix:                     0.119     0.119   0.0% |
  inverse-cholesky:                  0.026     0.026   0.0% |
  projections:                       0.542     0.542   0.1% |
  rotate_psi_s:                      0.112     0.112   0.0% |
Set symmetry:                        0.014     0.014   0.0% |
Other:                               1.170     1.170   0.2% |
-----------------------------------------------------------
Total:                                       696.463 100.0%

Memory usage: 727.30 MiB
Date: Thu Jul 21 09:40:21 2022
