
  ___ ___ ___ _ _ _  
 |   |   |_  | | | | 
 | | | | | . | | | | 
 |__ |  _|___|_____|  22.1.0
 |___|_|             

User:   gabrielbirnbaum@Gabriels-MacBook-Pro.local
Date:   Tue Jul 26 09:47:06 2022
Arch:   x86_64
Pid:    92584
Python: 3.9.13
gpaw:   /Users/gabrielbirnbaum/PycharmProjects/nanolithia/venv/lib/python3.9/site-packages/gpaw
_gpaw:  /Users/gabrielbirnbaum/PycharmProjects/nanolithia/venv/lib/python3.9/site-packages/
        _gpaw.cpython-39-darwin.so
ase:    /Users/gabrielbirnbaum/PycharmProjects/nanolithia/venv/lib/python3.9/site-packages/ase (version 3.22.1)
numpy:  /Users/gabrielbirnbaum/PycharmProjects/nanolithia/venv/lib/python3.9/site-packages/numpy (version 1.23.0)
scipy:  /Users/gabrielbirnbaum/PycharmProjects/nanolithia/venv/lib/python3.9/site-packages/scipy (version 1.8.1)
libxc:  5.2.3
units:  Angstrom and eV
cores: 1
OpenMP: False
OMP_NUM_THREADS: 1

Input parameters:
  kpts: {gamma: True,
         size: (8, 8, 8)}
  mode: {ecut: 600.0,
         name: pw}
  setups: {O: :p,1.05,0}

System changes: positions, numbers, cell, pbc, initial_charges, initial_magmoms 

Initialize ...

O-setup:
  name: Oxygen
  id: 9b9d51c344dea68c822856295a461509
  Z: 8.0
  valence: 6
  core: 2
  charge: 0.0
  Hubbard U: 1.050000 eV (l=1, scale=False)
  file: /Users/gabrielbirnbaum/dft_learning/DIR/gpaw-setups-0.9.20000/O.LDA.gz
  compensation charges: gauss, rc=0.21, lmax=2
  cutoffs: 1.17(filt), 0.83(core),
  valence states:
                energy  radius
    2s(2.00)   -23.752   0.688
    2p(4.00)    -9.195   0.598
    *s           3.459   0.688
    *p          18.016   0.598
    *d           0.000   0.619

  Using partial waves for O as LCAO basis

Reference energy: -8111.632273

Spin-paired calculation

Convergence criteria:
 Maximum [total energy] change in last 3 cyles: 0.0005 eV / electron
 Maximum integral of absolute [dens]ity change: 0.0001 electrons / valence electron
 Maximum integral of absolute [eigenst]ate change: 4e-08 eV^2 / valence electron
 Maximum number of scf [iter]ations: 333
 (Square brackets indicate name in SCF output, whereas a 'c' in
 the SCF output indicates the quantity has converged.)

Symmetries present (total): 4

  ( 1  0  0)  ( 1  0  0)  (-1  0  0)  (-1  0  0)
  ( 0  1  0)  ( 0 -1  0)  ( 0  1  0)  ( 0 -1  0)
  ( 0  0  1)  ( 0  0  1)  ( 0  0 -1)  ( 0  0 -1)

512 k-points: 8 x 8 x 8 Monkhorst-Pack grid + [1/16,1/16,1/16]
170 k-points in the irreducible part of the Brillouin zone
       k-points in crystal coordinates                weights
   0:     0.00000000    0.00000000    0.00000000          1/512
   1:     0.00000000    0.00000000    0.12500000          2/512
   2:     0.00000000    0.00000000    0.25000000          2/512
   3:     0.00000000    0.00000000    0.37500000          2/512
   4:     0.00000000    0.00000000    0.50000000          1/512
   5:     0.00000000    0.12500000    0.00000000          2/512
   6:     0.00000000    0.12500000    0.12500000          4/512
   7:     0.00000000    0.12500000    0.25000000          4/512
   8:     0.00000000    0.12500000    0.37500000          4/512
   9:     0.00000000    0.12500000    0.50000000          2/512
          ...
 169:     0.50000000    0.50000000    0.50000000          1/512

Wave functions: Plane wave expansion
  Cutoff energy: 600.000 eV
  Number of coefficients (min, max): 2432, 2492
  Pulay-stress correction: 0.000000 eV/Ang^3 (de/decut=0.000000)
  Using Numpy's FFT
  ScaLapack parameters: grid=1x1, blocksize=None
  Wavefunction extrapolation:
    Improved wavefunction reuse through dual PAW basis 

Occupation numbers: Fermi-Dirac: width=0.1000 eV
 

Eigensolver
   Davidson(niter=2) 

Densities:
  Coarse grid: 32*20*25 grid
  Fine grid: 64*40*50 grid
  Total Charge: 0.000000 

Density mixing:
  Method: separate
  Backend: pulay
  Linear mixing parameter: 0.05
  Mixing with 5 old densities
  Damping of long wave oscillations: 50 

Hamiltonian:
  XC and Coulomb potentials evaluated on a 64*40*50 grid
  Using the LDA Exchange-Correlation functional
  External potential:
    NoExternalPotential
 

Memory estimate:
  Process memory now: 1598.15 MiB
  Calculator: 167.38 MiB
    Density: 7.00 MiB
      Arrays: 3.17 MiB
      Localized functions: 2.61 MiB
      Mixer: 1.22 MiB
    Hamiltonian: 2.13 MiB
      Arrays: 2.08 MiB
      XC: 0.00 MiB
      Poisson: 0.00 MiB
      vbar: 0.05 MiB
    Wavefunctions: 158.25 MiB
      Arrays psit_nG: 103.43 MiB
      Eigensolver: 0.84 MiB
      Projections: 2.16 MiB
      Projectors: 44.75 MiB
      PW-descriptor: 7.07 MiB

Total number of cores used: 1

Number of atoms: 4
Number of atomic orbitals: 16
Number of bands in calculation: 16
Number of valence electrons: 24
Bands to converge: occupied

... initialized

Initializing position-dependent things.

Density initialized from atomic densities
Creating initial wave functions:
  16 bands from LCAO basis set

                       
                       
                       
                       
             O         
                       
       O               
          O            
                       
            O          
                       
                       
                       
                       

Positions:
   0 O      1.766737    0.792178   -3.122947    ( 0.0000,  0.0000,  0.0000)
   1 O      0.000000   -0.070820   -0.612542    ( 0.0000,  0.0000,  0.0000)
   2 O      0.000000    3.590005   -3.122947    ( 0.0000,  0.0000,  0.0000)
   3 O      1.766737    2.727007   -0.612542    ( 0.0000,  0.0000,  0.0000)

Unit cell:
           periodic     x           y           z      points  spacing
  1. axis:    yes    0.000000    5.595654    0.000000    32     0.1528
  2. axis:    yes    3.533474    0.000000    0.000000    20     0.1767
  3. axis:    yes    0.000000   -2.076469   -3.735489    25     0.1494

  Lengths:   5.595654   3.533474   4.273828
  Angles:   90.000000 119.068636  90.000000

Effective grid spacing dv^(1/3) = 0.1665

     iter     time        total  log10-change:
                         energy  eigst   dens
iter:   1 09:47:35   -18.309050
iter:   2 09:47:56   -18.318897  -1.21  -1.25
iter:   3 09:48:16   -18.001558  -1.65  -1.29
iter:   4 09:48:37   -17.997613  -1.97  -1.65
iter:   5 09:48:56   -17.986698  -2.41  -1.98
iter:   6 09:49:15   -17.978954  -3.09  -2.24
iter:   7 09:49:33   -17.978882c -4.83  -2.89
iter:   8 09:49:52   -17.978630c -4.73  -2.97
iter:   9 09:50:11   -17.978691c -5.46  -3.41
iter:  10 09:50:30   -17.978606c -5.51  -3.28
iter:  11 09:50:49   -17.978600c -6.42  -3.97
iter:  12 09:51:09   -17.978600c -7.74c -4.46c

Converged after 12 iterations.

Dipole moment: (-0.000000, -0.000000, -0.000000) |e|*Ang

Energy contributions relative to reference atoms: (reference = -8111.632273)

Kinetic:        +13.641170
Potential:      -18.912287
External:        +0.000000
XC:             -13.148672
Entropy (-ST):   -0.305161
Local:           +0.593770
--------------------------
Free energy:    -18.131180
Extrapolated:   -17.978600

Showing only first 2 kpts
 Kpt  Band  Eigenvalues  Occupancy
  0    10     -2.34752    1.98278
  0    11     -1.68570    0.26658
  0    12     -1.62618    0.15635
  0    13     -1.60691    0.13074

  1    10     -2.33191    1.97990
  1    11     -1.66127    0.21502
  1    12     -1.66045    0.21344
  1    13     -1.60494    0.12836


Fermi level: -1.87292

No gap
Timing:                              incl.     excl.
-----------------------------------------------------------
Hamiltonian:                         0.049     0.002   0.0% |
 Atomic:                             0.027     0.002   0.0% |
  XC Correction:                     0.025     0.025   0.0% |
 Calculate atomic Hamiltonians:      0.006     0.006   0.0% |
 Communicate:                        0.000     0.000   0.0% |
 Initialize Hamiltonian:             0.000     0.000   0.0% |
 Poisson:                            0.000     0.000   0.0% |
 XC 3D grid:                         0.013     0.013   0.0% |
LCAO initialization:                 8.985     0.016   0.0% |
 LCAO eigensolver:                   0.273     0.004   0.0% |
  Calculate projections:             0.004     0.004   0.0% |
  DenseAtomicCorrection:             0.015     0.015   0.0% |
  Distribute overlap matrix:         0.002     0.002   0.0% |
  Orbital Layouts:                   0.024     0.024   0.0% |
  Potential matrix:                  0.197     0.197   0.1% |
  Sum over cells:                    0.027     0.027   0.0% |
 LCAO to grid:                       7.793     7.793   3.2% ||
 Set positions (LCAO WFS):           0.903     0.093   0.0% |
  Basic WFS set positions:           0.000     0.000   0.0% |
  Basis functions set positions:     0.000     0.000   0.0% |
  P tci:                             0.374     0.374   0.2% |
  ST tci:                            0.420     0.420   0.2% |
  mktci:                             0.015     0.015   0.0% |
PWDescriptor:                        0.075     0.075   0.0% |
SCF-cycle:                         233.288     0.331   0.1% |
 Davidson:                         212.735    16.375   6.7% |--|
  Apply H:                          43.678    43.008  17.7% |------|
   HMM T:                            0.670     0.670   0.3% |
  Subspace diag:                    51.274     0.123   0.1% |
   calc_h_matrix:                   49.891     1.708   0.7% |
    Apply H:                        48.183    47.693  19.6% |-------|
     HMM T:                          0.490     0.490   0.2% |
   diagonalize:                      0.366     0.366   0.2% |
   rotate_psi:                       0.894     0.894   0.4% |
  calc. matrices:                   98.494    12.146   5.0% |-|
   Apply H:                         86.348    85.237  35.0% |-------------|
    HMM T:                           1.111     1.111   0.5% |
  diagonalize:                       1.319     1.319   0.5% |
  rotate_psi:                        1.594     1.594   0.7% |
 Density:                           18.986     0.000   0.0% |
  Atomic density matrices:           0.111     0.111   0.0% |
  Mix:                               0.206     0.206   0.1% |
  Multipole moments:                 0.001     0.001   0.0% |
  Pseudo density:                   18.667    18.650   7.7% |--|
   Symmetrize density:               0.017     0.017   0.0% |
 Hamiltonian:                        0.667     0.015   0.0% |
  Atomic:                            0.382     0.028   0.0% |
   XC Correction:                    0.354     0.354   0.1% |
  Calculate atomic Hamiltonians:     0.088     0.088   0.0% |
  Communicate:                       0.000     0.000   0.0% |
  Poisson:                           0.005     0.005   0.0% |
  XC 3D grid:                        0.177     0.177   0.1% |
 Orthonormalize:                     0.569     0.012   0.0% |
  calc_s_matrix:                     0.295     0.295   0.1% |
  inverse-cholesky:                  0.013     0.013   0.0% |
  projections:                       0.205     0.205   0.1% |
  rotate_psi_s:                      0.044     0.044   0.0% |
Set symmetry:                        0.010     0.010   0.0% |
Other:                               1.001     1.001   0.4% |
-----------------------------------------------------------
Total:                                       243.408 100.0%

Memory usage: 1.56 GiB
Date: Tue Jul 26 09:51:09 2022
