
  ___ ___ ___ _ _ _  
 |   |   |_  | | | | 
 | | | | | . | | | | 
 |__ |  _|___|_____|  22.1.0
 |___|_|             

User:   gabrielbirnbaum@Gabriels-MacBook-Pro.local
Date:   Tue Jul 26 09:38:36 2022
Arch:   x86_64
Pid:    92584
Python: 3.9.13
gpaw:   /Users/gabrielbirnbaum/PycharmProjects/nanolithia/venv/lib/python3.9/site-packages/gpaw
_gpaw:  /Users/gabrielbirnbaum/PycharmProjects/nanolithia/venv/lib/python3.9/site-packages/
        _gpaw.cpython-39-darwin.so
ase:    /Users/gabrielbirnbaum/PycharmProjects/nanolithia/venv/lib/python3.9/site-packages/ase (version 3.22.1)
numpy:  /Users/gabrielbirnbaum/PycharmProjects/nanolithia/venv/lib/python3.9/site-packages/numpy (version 1.23.0)
scipy:  /Users/gabrielbirnbaum/PycharmProjects/nanolithia/venv/lib/python3.9/site-packages/scipy (version 1.8.1)
libxc:  5.2.3
units:  Angstrom and eV
cores: 1
OpenMP: False
OMP_NUM_THREADS: 1

Input parameters:
  kpts: {gamma: True,
         size: (8, 8, 8)}
  mode: {ecut: 500.0,
         name: pw}
  setups: {O: :p,1.05,0}

System changes: positions, numbers, cell, pbc, initial_charges, initial_magmoms 

Initialize ...

O-setup:
  name: Oxygen
  id: 9b9d51c344dea68c822856295a461509
  Z: 8.0
  valence: 6
  core: 2
  charge: 0.0
  Hubbard U: 1.050000 eV (l=1, scale=False)
  file: /Users/gabrielbirnbaum/dft_learning/DIR/gpaw-setups-0.9.20000/O.LDA.gz
  compensation charges: gauss, rc=0.21, lmax=2
  cutoffs: 1.17(filt), 0.83(core),
  valence states:
                energy  radius
    2s(2.00)   -23.752   0.688
    2p(4.00)    -9.195   0.598
    *s           3.459   0.688
    *p          18.016   0.598
    *d           0.000   0.619

  Using partial waves for O as LCAO basis

Reference energy: -8111.632273

Spin-paired calculation

Convergence criteria:
 Maximum [total energy] change in last 3 cyles: 0.0005 eV / electron
 Maximum integral of absolute [dens]ity change: 0.0001 electrons / valence electron
 Maximum integral of absolute [eigenst]ate change: 4e-08 eV^2 / valence electron
 Maximum number of scf [iter]ations: 333
 (Square brackets indicate name in SCF output, whereas a 'c' in
 the SCF output indicates the quantity has converged.)

Symmetries present (total): 4

  ( 1  0  0)  ( 1  0  0)  (-1  0  0)  (-1  0  0)
  ( 0  1  0)  ( 0 -1  0)  ( 0  1  0)  ( 0 -1  0)
  ( 0  0  1)  ( 0  0  1)  ( 0  0 -1)  ( 0  0 -1)

512 k-points: 8 x 8 x 8 Monkhorst-Pack grid + [1/16,1/16,1/16]
170 k-points in the irreducible part of the Brillouin zone
       k-points in crystal coordinates                weights
   0:     0.00000000    0.00000000    0.00000000          1/512
   1:     0.00000000    0.00000000    0.12500000          2/512
   2:     0.00000000    0.00000000    0.25000000          2/512
   3:     0.00000000    0.00000000    0.37500000          2/512
   4:     0.00000000    0.00000000    0.50000000          1/512
   5:     0.00000000    0.12500000    0.00000000          2/512
   6:     0.00000000    0.12500000    0.12500000          4/512
   7:     0.00000000    0.12500000    0.25000000          4/512
   8:     0.00000000    0.12500000    0.37500000          4/512
   9:     0.00000000    0.12500000    0.50000000          2/512
          ...
 169:     0.50000000    0.50000000    0.50000000          1/512

Wave functions: Plane wave expansion
  Cutoff energy: 500.000 eV
  Number of coefficients (min, max): 1852, 1910
  Pulay-stress correction: 0.000000 eV/Ang^3 (de/decut=0.000000)
  Using Numpy's FFT
  ScaLapack parameters: grid=1x1, blocksize=None
  Wavefunction extrapolation:
    Improved wavefunction reuse through dual PAW basis 

Occupation numbers: Fermi-Dirac: width=0.1000 eV
 

Eigensolver
   Davidson(niter=2) 

Densities:
  Coarse grid: 30*20*24 grid
  Fine grid: 60*40*48 grid
  Total Charge: 0.000000 

Density mixing:
  Method: separate
  Backend: pulay
  Linear mixing parameter: 0.05
  Mixing with 5 old densities
  Damping of long wave oscillations: 50 

Hamiltonian:
  XC and Coulomb potentials evaluated on a 60*40*48 grid
  Using the LDA Exchange-Correlation functional
  External potential:
    NoExternalPotential
 

Memory estimate:
  Process memory now: 1582.19 MiB
  Calculator: 129.48 MiB
    Density: 5.94 MiB
      Arrays: 2.86 MiB
      Localized functions: 1.98 MiB
      Mixer: 1.10 MiB
    Hamiltonian: 1.91 MiB
      Arrays: 1.87 MiB
      XC: 0.00 MiB
      Poisson: 0.00 MiB
      vbar: 0.04 MiB
    Wavefunctions: 121.64 MiB
      Arrays psit_nG: 79.27 MiB
      Eigensolver: 0.65 MiB
      Projections: 2.16 MiB
      Projectors: 34.05 MiB
      PW-descriptor: 5.50 MiB

Total number of cores used: 1

Number of atoms: 4
Number of atomic orbitals: 16
Number of bands in calculation: 16
Number of valence electrons: 24
Bands to converge: occupied

... initialized

Initializing position-dependent things.

Density initialized from atomic densities
Creating initial wave functions:
  16 bands from LCAO basis set

                       
                       
                       
                       
             O         
                       
       O               
          O            
                       
            O          
                       
                       
                       
                       

Positions:
   0 O      1.766737    0.792178   -3.122947    ( 0.0000,  0.0000,  0.0000)
   1 O      0.000000   -0.070820   -0.612542    ( 0.0000,  0.0000,  0.0000)
   2 O      0.000000    3.590005   -3.122947    ( 0.0000,  0.0000,  0.0000)
   3 O      1.766737    2.727007   -0.612542    ( 0.0000,  0.0000,  0.0000)

Unit cell:
           periodic     x           y           z      points  spacing
  1. axis:    yes    0.000000    5.595654    0.000000    30     0.1630
  2. axis:    yes    3.533474    0.000000    0.000000    20     0.1767
  3. axis:    yes    0.000000   -2.076469   -3.735489    24     0.1556

  Lengths:   5.595654   3.533474   4.273828
  Angles:   90.000000 119.068636  90.000000

Effective grid spacing dv^(1/3) = 0.1725

     iter     time        total  log10-change:
                         energy  eigst   dens
iter:   1 09:39:01   -16.962986
iter:   2 09:39:20   -16.974287  -1.25  -1.25
iter:   3 09:39:40   -16.671880  -1.69  -1.28
iter:   4 09:40:00   -16.670705  -1.99  -1.65
iter:   5 09:40:19   -16.655113  -2.43  -1.98
iter:   6 09:40:37   -16.650560  -3.20  -2.33
iter:   7 09:40:55   -16.649933c -4.60  -2.69
iter:   8 09:41:14   -16.649686c -3.85  -2.82
iter:   9 09:41:32   -16.649472c -4.69  -3.04
iter:  10 09:41:50   -16.649435c -6.23  -3.47
iter:  11 09:42:08   -16.649441c -6.23  -3.97
iter:  12 09:42:27   -16.649446c -6.62  -3.95
iter:  13 09:42:44   -16.649448c -8.29c -4.20c

Converged after 13 iterations.

Dipole moment: (-0.000000, -0.000000, -0.000000) |e|*Ang

Energy contributions relative to reference atoms: (reference = -8111.632273)

Kinetic:         +5.549906
Potential:       -9.686930
External:        +0.000000
XC:             -12.562294
Entropy (-ST):   -0.299697
Local:           +0.199719
--------------------------
Free energy:    -16.799296
Extrapolated:   -16.649448

Showing only first 2 kpts
 Kpt  Band  Eigenvalues  Occupancy
  0    10     -2.33783    1.98485
  0    11     -1.65788    0.25485
  0    12     -1.59507    0.14459
  0    13     -1.58469    0.13126

  1    10     -2.31826    1.98161
  1    11     -1.64614    0.22988
  1    12     -1.63377    0.20589
  1    13     -1.56273    0.10676


Fermi level: -1.85027

No gap
Timing:                              incl.     excl.
-----------------------------------------------------------
Hamiltonian:                         0.043     0.002   0.0% |
 Atomic:                             0.025     0.002   0.0% |
  XC Correction:                     0.023     0.023   0.0% |
 Calculate atomic Hamiltonians:      0.004     0.004   0.0% |
 Communicate:                        0.000     0.000   0.0% |
 Initialize Hamiltonian:             0.000     0.000   0.0% |
 Poisson:                            0.000     0.000   0.0% |
 XC 3D grid:                         0.012     0.012   0.0% |
LCAO initialization:                 7.758     0.012   0.0% |
 LCAO eigensolver:                   0.240     0.003   0.0% |
  Calculate projections:             0.004     0.004   0.0% |
  DenseAtomicCorrection:             0.014     0.014   0.0% |
  Distribute overlap matrix:         0.002     0.002   0.0% |
  Orbital Layouts:                   0.022     0.022   0.0% |
  Potential matrix:                  0.171     0.171   0.1% |
  Sum over cells:                    0.024     0.024   0.0% |
 LCAO to grid:                       6.673     6.673   2.7% ||
 Set positions (LCAO WFS):           0.834     0.087   0.0% |
  Basic WFS set positions:           0.000     0.000   0.0% |
  Basis functions set positions:     0.000     0.000   0.0% |
  P tci:                             0.357     0.357   0.1% |
  ST tci:                            0.376     0.376   0.2% |
  mktci:                             0.013     0.013   0.0% |
PWDescriptor:                        0.058     0.058   0.0% |
SCF-cycle:                         239.506     0.333   0.1% |
 Davidson:                         218.130    11.151   4.5% |-|
  Apply H:                          45.551    45.113  18.2% |------|
   HMM T:                            0.438     0.438   0.2% |
  Subspace diag:                    57.217     0.131   0.1% |
   calc_h_matrix:                   55.953     0.981   0.4% |
    Apply H:                        54.972    54.514  22.0% |--------|
     HMM T:                          0.459     0.459   0.2% |
   diagonalize:                      0.386     0.386   0.2% |
   rotate_psi:                       0.747     0.747   0.3% |
  calc. matrices:                  101.088     9.732   3.9% |-|
   Apply H:                         91.355    90.492  36.5% |--------------|
    HMM T:                           0.864     0.864   0.3% |
  diagonalize:                       1.793     1.793   0.7% |
  rotate_psi:                        1.331     1.331   0.5% |
 Density:                           19.895     0.000   0.0% |
  Atomic density matrices:           0.117     0.117   0.0% |
  Mix:                               0.203     0.203   0.1% |
  Multipole moments:                 0.001     0.001   0.0% |
  Pseudo density:                   19.574    19.557   7.9% |--|
   Symmetrize density:               0.017     0.017   0.0% |
 Hamiltonian:                        0.707     0.012   0.0% |
  Atomic:                            0.414     0.032   0.0% |
   XC Correction:                    0.382     0.382   0.2% |
  Calculate atomic Hamiltonians:     0.085     0.085   0.0% |
  Communicate:                       0.000     0.000   0.0% |
  Poisson:                           0.006     0.006   0.0% |
  XC 3D grid:                        0.191     0.191   0.1% |
 Orthonormalize:                     0.441     0.010   0.0% |
  calc_s_matrix:                     0.255     0.255   0.1% |
  inverse-cholesky:                  0.011     0.011   0.0% |
  projections:                       0.139     0.139   0.1% |
  rotate_psi_s:                      0.027     0.027   0.0% |
Set symmetry:                        0.010     0.010   0.0% |
Other:                               0.692     0.692   0.3% |
-----------------------------------------------------------
Total:                                       248.065 100.0%

Memory usage: 1.55 GiB
Date: Tue Jul 26 09:42:45 2022
