
  ___ ___ ___ _ _ _  
 |   |   |_  | | | | 
 | | | | | . | | | | 
 |__ |  _|___|_____|  22.1.0
 |___|_|             

User:   gabrielbirnbaum@Gabriels-MacBook-Pro.local
Date:   Tue Jul 26 09:42:45 2022
Arch:   x86_64
Pid:    92584
Python: 3.9.13
gpaw:   /Users/gabrielbirnbaum/PycharmProjects/nanolithia/venv/lib/python3.9/site-packages/gpaw
_gpaw:  /Users/gabrielbirnbaum/PycharmProjects/nanolithia/venv/lib/python3.9/site-packages/
        _gpaw.cpython-39-darwin.so
ase:    /Users/gabrielbirnbaum/PycharmProjects/nanolithia/venv/lib/python3.9/site-packages/ase (version 3.22.1)
numpy:  /Users/gabrielbirnbaum/PycharmProjects/nanolithia/venv/lib/python3.9/site-packages/numpy (version 1.23.0)
scipy:  /Users/gabrielbirnbaum/PycharmProjects/nanolithia/venv/lib/python3.9/site-packages/scipy (version 1.8.1)
libxc:  5.2.3
units:  Angstrom and eV
cores: 1
OpenMP: False
OMP_NUM_THREADS: 1

Input parameters:
  kpts: {gamma: True,
         size: (8, 8, 8)}
  mode: {ecut: 550.0,
         name: pw}
  setups: {O: :p,1.05,0}

System changes: positions, numbers, cell, pbc, initial_charges, initial_magmoms 

Initialize ...

O-setup:
  name: Oxygen
  id: 9b9d51c344dea68c822856295a461509
  Z: 8.0
  valence: 6
  core: 2
  charge: 0.0
  Hubbard U: 1.050000 eV (l=1, scale=False)
  file: /Users/gabrielbirnbaum/dft_learning/DIR/gpaw-setups-0.9.20000/O.LDA.gz
  compensation charges: gauss, rc=0.21, lmax=2
  cutoffs: 1.17(filt), 0.83(core),
  valence states:
                energy  radius
    2s(2.00)   -23.752   0.688
    2p(4.00)    -9.195   0.598
    *s           3.459   0.688
    *p          18.016   0.598
    *d           0.000   0.619

  Using partial waves for O as LCAO basis

Reference energy: -8111.632273

Spin-paired calculation

Convergence criteria:
 Maximum [total energy] change in last 3 cyles: 0.0005 eV / electron
 Maximum integral of absolute [dens]ity change: 0.0001 electrons / valence electron
 Maximum integral of absolute [eigenst]ate change: 4e-08 eV^2 / valence electron
 Maximum number of scf [iter]ations: 333
 (Square brackets indicate name in SCF output, whereas a 'c' in
 the SCF output indicates the quantity has converged.)

Symmetries present (total): 4

  ( 1  0  0)  ( 1  0  0)  (-1  0  0)  (-1  0  0)
  ( 0  1  0)  ( 0 -1  0)  ( 0  1  0)  ( 0 -1  0)
  ( 0  0  1)  ( 0  0  1)  ( 0  0 -1)  ( 0  0 -1)

512 k-points: 8 x 8 x 8 Monkhorst-Pack grid + [1/16,1/16,1/16]
170 k-points in the irreducible part of the Brillouin zone
       k-points in crystal coordinates                weights
   0:     0.00000000    0.00000000    0.00000000          1/512
   1:     0.00000000    0.00000000    0.12500000          2/512
   2:     0.00000000    0.00000000    0.25000000          2/512
   3:     0.00000000    0.00000000    0.37500000          2/512
   4:     0.00000000    0.00000000    0.50000000          1/512
   5:     0.00000000    0.12500000    0.00000000          2/512
   6:     0.00000000    0.12500000    0.12500000          4/512
   7:     0.00000000    0.12500000    0.25000000          4/512
   8:     0.00000000    0.12500000    0.37500000          4/512
   9:     0.00000000    0.12500000    0.50000000          2/512
          ...
 169:     0.50000000    0.50000000    0.50000000          1/512

Wave functions: Plane wave expansion
  Cutoff energy: 550.000 eV
  Number of coefficients (min, max): 2146, 2184
  Pulay-stress correction: 0.000000 eV/Ang^3 (de/decut=0.000000)
  Using Numpy's FFT
  ScaLapack parameters: grid=1x1, blocksize=None
  Wavefunction extrapolation:
    Improved wavefunction reuse through dual PAW basis 

Occupation numbers: Fermi-Dirac: width=0.1000 eV
 

Eigensolver
   Davidson(niter=2) 

Densities:
  Coarse grid: 32*20*24 grid
  Fine grid: 64*40*48 grid
  Total Charge: 0.000000 

Density mixing:
  Method: separate
  Backend: pulay
  Linear mixing parameter: 0.05
  Mixing with 5 old densities
  Damping of long wave oscillations: 50 

Hamiltonian:
  XC and Coulomb potentials evaluated on a 64*40*48 grid
  Using the LDA Exchange-Correlation functional
  External potential:
    NoExternalPotential
 

Memory estimate:
  Process memory now: 1584.66 MiB
  Calculator: 147.62 MiB
    Density: 6.50 MiB
      Arrays: 3.05 MiB
      Localized functions: 2.28 MiB
      Mixer: 1.17 MiB
    Hamiltonian: 2.04 MiB
      Arrays: 1.99 MiB
      XC: 0.00 MiB
      Poisson: 0.00 MiB
      vbar: 0.05 MiB
    Wavefunctions: 139.08 MiB
      Arrays psit_nG: 90.64 MiB
      Eigensolver: 0.74 MiB
      Projections: 2.16 MiB
      Projectors: 39.29 MiB
      PW-descriptor: 6.25 MiB

Total number of cores used: 1

Number of atoms: 4
Number of atomic orbitals: 16
Number of bands in calculation: 16
Number of valence electrons: 24
Bands to converge: occupied

... initialized

Initializing position-dependent things.

Density initialized from atomic densities
Creating initial wave functions:
  16 bands from LCAO basis set

                       
                       
                       
                       
             O         
                       
       O               
          O            
                       
            O          
                       
                       
                       
                       

Positions:
   0 O      1.766737    0.792178   -3.122947    ( 0.0000,  0.0000,  0.0000)
   1 O      0.000000   -0.070820   -0.612542    ( 0.0000,  0.0000,  0.0000)
   2 O      0.000000    3.590005   -3.122947    ( 0.0000,  0.0000,  0.0000)
   3 O      1.766737    2.727007   -0.612542    ( 0.0000,  0.0000,  0.0000)

Unit cell:
           periodic     x           y           z      points  spacing
  1. axis:    yes    0.000000    5.595654    0.000000    32     0.1528
  2. axis:    yes    3.533474    0.000000    0.000000    20     0.1767
  3. axis:    yes    0.000000   -2.076469   -3.735489    24     0.1556

  Lengths:   5.595654   3.533474   4.273828
  Angles:   90.000000 119.068636  90.000000

Effective grid spacing dv^(1/3) = 0.1688

     iter     time        total  log10-change:
                         energy  eigst   dens
iter:   1 09:43:10   -17.862605
iter:   2 09:43:30   -17.872581  -1.23  -1.25
iter:   3 09:43:49   -17.561357  -1.67  -1.28
iter:   4 09:44:09   -17.557840  -1.98  -1.65
iter:   5 09:44:27   -17.545177  -2.44  -1.98
iter:   6 09:44:46   -17.539105  -3.13  -2.28
iter:   7 09:45:05   -17.538849c -5.05  -2.79
iter:   8 09:45:26   -17.538467c -4.24  -2.89
iter:   9 09:45:45   -17.538465c -5.05  -3.28
iter:  10 09:46:05   -17.538410c -5.88  -3.39
iter:  11 09:46:44   -17.538409c -6.59  -4.08c
iter:  12 09:47:05   -17.538409c -8.01c -4.29c

Converged after 12 iterations.

Dipole moment: (-0.000000, -0.000000, -0.000000) |e|*Ang

Energy contributions relative to reference atoms: (reference = -8111.632273)

Kinetic:        +10.654613
Potential:      -15.516896
External:        +0.000000
XC:             -12.942410
Entropy (-ST):   -0.305357
Local:           +0.418963
--------------------------
Free energy:    -17.691087
Extrapolated:   -17.538409

Showing only first 2 kpts
 Kpt  Band  Eigenvalues  Occupancy
  0    10     -2.34289    1.98290
  0    11     -1.69336    0.29810
  0    12     -1.62187    0.15785
  0    13     -1.60435    0.13418

  1    10     -2.32868    1.98031
  1    11     -1.66833    0.24001
  1    12     -1.65794    0.21891
  1    13     -1.59906    0.12771


Fermi level: -1.86757

No gap
Timing:                              incl.     excl.
-----------------------------------------------------------
Hamiltonian:                         0.050     0.003   0.0% |
 Atomic:                             0.026     0.002   0.0% |
  XC Correction:                     0.024     0.024   0.0% |
 Calculate atomic Hamiltonians:      0.005     0.005   0.0% |
 Communicate:                        0.000     0.000   0.0% |
 Initialize Hamiltonian:             0.000     0.000   0.0% |
 Poisson:                            0.000     0.000   0.0% |
 XC 3D grid:                         0.015     0.015   0.0% |
LCAO initialization:                 7.591     0.012   0.0% |
 LCAO eigensolver:                   0.251     0.003   0.0% |
  Calculate projections:             0.004     0.004   0.0% |
  DenseAtomicCorrection:             0.014     0.014   0.0% |
  Distribute overlap matrix:         0.002     0.002   0.0% |
  Orbital Layouts:                   0.022     0.022   0.0% |
  Potential matrix:                  0.182     0.182   0.1% |
  Sum over cells:                    0.024     0.024   0.0% |
 LCAO to grid:                       6.476     6.476   2.5% ||
 Set positions (LCAO WFS):           0.852     0.089   0.0% |
  Basic WFS set positions:           0.000     0.000   0.0% |
  Basis functions set positions:     0.000     0.000   0.0% |
  P tci:                             0.367     0.367   0.1% |
  ST tci:                            0.382     0.382   0.1% |
  mktci:                             0.013     0.013   0.0% |
PWDescriptor:                        0.060     0.060   0.0% |
SCF-cycle:                         252.463     0.325   0.1% |
 Davidson:                         232.130    16.001   6.1% |-|
  Apply H:                          43.884    43.320  16.6% |------|
   HMM T:                            0.564     0.564   0.2% |
  Subspace diag:                    57.572     0.117   0.0% |
   calc_h_matrix:                   56.335     0.897   0.3% |
    Apply H:                        55.438    54.947  21.1% |-------|
     HMM T:                          0.491     0.491   0.2% |
   diagonalize:                      0.348     0.348   0.1% |
   rotate_psi:                       0.773     0.773   0.3% |
  calc. matrices:                  111.991     9.194   3.5% ||
   Apply H:                        102.797   101.867  39.0% |---------------|
    HMM T:                           0.930     0.930   0.4% |
  diagonalize:                       1.266     1.266   0.5% |
  rotate_psi:                        1.415     1.415   0.5% |
 Density:                           18.904     0.000   0.0% |
  Atomic density matrices:           0.107     0.107   0.0% |
  Mix:                               0.184     0.184   0.1% |
  Multipole moments:                 0.001     0.001   0.0% |
  Pseudo density:                   18.612    18.596   7.1% |--|
   Symmetrize density:               0.017     0.017   0.0% |
 Hamiltonian:                        0.660     0.020   0.0% |
  Atomic:                            0.383     0.028   0.0% |
   XC Correction:                    0.355     0.355   0.1% |
  Calculate atomic Hamiltonians:     0.073     0.073   0.0% |
  Communicate:                       0.000     0.000   0.0% |
  Poisson:                           0.004     0.004   0.0% |
  XC 3D grid:                        0.180     0.180   0.1% |
 Orthonormalize:                     0.443     0.010   0.0% |
  calc_s_matrix:                     0.222     0.222   0.1% |
  inverse-cholesky:                  0.011     0.011   0.0% |
  projections:                       0.169     0.169   0.1% |
  rotate_psi_s:                      0.032     0.032   0.0% |
Set symmetry:                        0.009     0.009   0.0% |
Other:                               0.742     0.742   0.3% |
-----------------------------------------------------------
Total:                                       260.914 100.0%

Memory usage: 1.56 GiB
Date: Tue Jul 26 09:47:06 2022
