
  ___ ___ ___ _ _ _  
 |   |   |_  | | | | 
 | | | | | . | | | | 
 |__ |  _|___|_____|  22.1.0
 |___|_|             

User:   gabrielbirnbaum@Gabriels-MacBook-Pro.local
Date:   Sat Jul 30 08:33:27 2022
Arch:   x86_64
Pid:    83778
Python: 3.9.13
gpaw:   /Users/gabrielbirnbaum/PycharmProjects/nanolithia/venv/lib/python3.9/site-packages/gpaw
_gpaw:  /Users/gabrielbirnbaum/PycharmProjects/nanolithia/venv/lib/python3.9/site-packages/
        _gpaw.cpython-39-darwin.so
ase:    /Users/gabrielbirnbaum/PycharmProjects/nanolithia/venv/lib/python3.9/site-packages/ase (version 3.22.1)
numpy:  /Users/gabrielbirnbaum/PycharmProjects/nanolithia/venv/lib/python3.9/site-packages/numpy (version 1.23.0)
scipy:  /Users/gabrielbirnbaum/PycharmProjects/nanolithia/venv/lib/python3.9/site-packages/scipy (version 1.8.1)
libxc:  5.2.3
units:  Angstrom and eV
cores: 1
OpenMP: False
OMP_NUM_THREADS: 1

Input parameters:
  kpts: {gamma: True,
         size: (4, 4, 4)}
  mode: {ecut: 900.0000000000001,
         name: pw}
  setups: {O: :p,1.05,0}
  xc: PBE

System changes: positions, numbers, cell, pbc, initial_charges, initial_magmoms 

Initialize ...

O-setup:
  name: Oxygen
  id: 32ecd46bf208036f09c70b0ec9a88b78
  Z: 8.0
  valence: 6
  core: 2
  charge: 0.0
  Hubbard U: 1.050000 eV (l=1, scale=False)
  file: /Users/gabrielbirnbaum/dft_learning/DIR/gpaw-setups-0.9.20000/O.PBE.gz
  compensation charges: gauss, rc=0.21, lmax=2
  cutoffs: 1.17(filt), 0.83(core),
  valence states:
                energy  radius
    2s(2.00)   -23.961   0.688
    2p(4.00)    -9.029   0.598
    *s           3.251   0.688
    *p          18.182   0.598
    *d           0.000   0.619

  Using partial waves for O as LCAO basis

Reference energy: -8163.409205

Spin-paired calculation

Convergence criteria:
 Maximum [total energy] change in last 3 cyles: 0.0005 eV / electron
 Maximum integral of absolute [dens]ity change: 0.0001 electrons / valence electron
 Maximum integral of absolute [eigenst]ate change: 4e-08 eV^2 / valence electron
 Maximum number of scf [iter]ations: 333
 (Square brackets indicate name in SCF output, whereas a 'c' in
 the SCF output indicates the quantity has converged.)

Symmetries present (total): 4

  ( 1  0  0)  ( 1  0  0)  (-1  0  0)  (-1  0  0)
  ( 0  1  0)  ( 0 -1  0)  ( 0  1  0)  ( 0 -1  0)
  ( 0  0  1)  ( 0  0  1)  ( 0  0 -1)  ( 0  0 -1)

64 k-points: 4 x 4 x 4 Monkhorst-Pack grid + [1/8,1/8,1/8]
30 k-points in the irreducible part of the Brillouin zone
       k-points in crystal coordinates                weights
   0:     0.00000000    0.00000000    0.00000000          1/64
   1:     0.00000000    0.00000000    0.25000000          2/64
   2:     0.00000000    0.00000000    0.50000000          1/64
   3:     0.00000000    0.25000000    0.00000000          2/64
   4:     0.00000000    0.25000000    0.25000000          4/64
   5:     0.00000000    0.25000000    0.50000000          2/64
   6:     0.00000000    0.50000000    0.00000000          1/64
   7:     0.00000000    0.50000000    0.25000000          2/64
   8:     0.00000000    0.50000000    0.50000000          1/64
   9:     0.25000000    0.00000000   -0.25000000          2/64
          ...
  29:     0.50000000    0.50000000    0.50000000          1/64

Wave functions: Plane wave expansion
  Cutoff energy: 900.000 eV
  Number of coefficients (min, max): 4496, 4561
  Pulay-stress correction: 0.000000 eV/Ang^3 (de/decut=0.000000)
  Using Numpy's FFT
  ScaLapack parameters: grid=1x1, blocksize=None
  Wavefunction extrapolation:
    Improved wavefunction reuse through dual PAW basis 

Occupation numbers: Fermi-Dirac: width=0.1000 eV
 

Eigensolver
   Davidson(niter=2) 

Densities:
  Coarse grid: 40*25*30 grid
  Fine grid: 80*50*60 grid
  Total Charge: 0.000000 

Density mixing:
  Method: separate
  Backend: pulay
  Linear mixing parameter: 0.05
  Mixing with 5 old densities
  Damping of long wave oscillations: 50 

Hamiltonian:
  XC and Coulomb potentials evaluated on a 80*50*60 grid
  Using the PBE Exchange-Correlation functional
  External potential:
    NoExternalPotential
 

XC parameters: PBE with 2 nearest neighbor stencil

Memory estimate:
  Process memory now: 650.60 MiB
  Calculator: 70.05 MiB
    Density: 13.03 MiB
      Arrays: 5.95 MiB
      Localized functions: 4.79 MiB
      Mixer: 2.29 MiB
    Hamiltonian: 3.99 MiB
      Arrays: 3.89 MiB
      XC: 0.00 MiB
      Poisson: 0.00 MiB
      vbar: 0.10 MiB
    Wavefunctions: 53.03 MiB
      Arrays psit_nG: 33.41 MiB
      Eigensolver: 1.50 MiB
      Projections: 0.38 MiB
      Projectors: 14.51 MiB
      PW-descriptor: 3.23 MiB

Total number of cores used: 1

Number of atoms: 4
Number of atomic orbitals: 16
Number of bands in calculation: 16
Number of valence electrons: 24
Bands to converge: occupied

... initialized

Initializing position-dependent things.

Density initialized from atomic densities
Creating initial wave functions:
  16 bands from LCAO basis set

                       
                       
                       
                       
             O         
                       
       O               
          O            
                       
            O          
                       
                       
                       
                       

Positions:
   0 O      1.766737    0.792178   -3.122947    ( 0.0000,  0.0000,  0.0000)
   1 O      0.000000   -0.070820   -0.612542    ( 0.0000,  0.0000,  0.0000)
   2 O      0.000000    3.590005   -3.122947    ( 0.0000,  0.0000,  0.0000)
   3 O      1.766737    2.727007   -0.612542    ( 0.0000,  0.0000,  0.0000)

Unit cell:
           periodic     x           y           z      points  spacing
  1. axis:    yes    0.000000    5.595654    0.000000    40     0.1223
  2. axis:    yes    3.533474    0.000000    0.000000    25     0.1413
  3. axis:    yes    0.000000   -2.076469   -3.735489    30     0.1245

  Lengths:   5.595654   3.533474   4.273828
  Angles:   90.000000 119.068636  90.000000

Effective grid spacing dv^(1/3) = 0.1350

     iter     time        total  log10-change:
                         energy  eigst   dens
iter:   1 08:33:36   -16.753536
iter:   2 08:33:42   -16.759673  -1.22  -1.23
iter:   3 08:33:49   -16.447216  -1.59  -1.27
iter:   4 08:33:55   -16.454775  -1.99  -1.65
iter:   5 08:34:02   -16.453391c -3.42  -1.94
iter:   6 08:34:09   -16.455701c -2.28  -1.94
iter:   7 08:34:16   -16.442824  -3.14  -2.10
iter:   8 08:34:24   -16.442762  -4.70  -2.83
iter:   9 08:34:32   -16.443162c -4.04  -2.90
iter:  10 08:34:40   -16.443180c -4.59  -2.90
iter:  11 08:34:48   -16.443169c -5.90  -3.10
iter:  12 08:34:55   -16.442954c -4.93  -3.10
iter:  13 08:35:02   -16.442872c -5.65  -3.33
iter:  14 08:35:09   -16.442929c -5.97  -3.47
iter:  15 08:35:16   -16.442910c -7.30  -4.21c
iter:  16 08:35:23   -16.442902c -7.57c -4.40c

Converged after 16 iterations.

Dipole moment: (-0.000000, -0.000000, -0.000000) |e|*Ang

Energy contributions relative to reference atoms: (reference = -8163.409205)

Kinetic:        +18.982748
Potential:      -24.299525
External:        +0.000000
XC:             -11.892247
Entropy (-ST):   -0.315558
Local:           +0.923901
--------------------------
Free energy:    -16.600681
Extrapolated:   -16.442902

Showing only first 2 kpts
 Kpt  Band  Eigenvalues  Occupancy
  0    10     -2.02345    1.97889
  0    11     -1.39504    0.29774
  0    12     -1.33104    0.16888
  0    13     -1.31600    0.14703

  1    10     -1.95756    1.95960
  1    11     -1.49286    0.63501
  1    12     -1.30989    0.13893
  1    13     -1.26379    0.08991


Fermi level: -1.56939

No gap
Timing:                              incl.     excl.
-----------------------------------------------------------
Hamiltonian:                         0.169     0.001   0.0% |
 Atomic:                             0.092     0.002   0.0% |
  XC Correction:                     0.090     0.090   0.1% |
 Calculate atomic Hamiltonians:      0.010     0.010   0.0% |
 Communicate:                        0.000     0.000   0.0% |
 Initialize Hamiltonian:             0.000     0.000   0.0% |
 Poisson:                            0.001     0.001   0.0% |
 XC 3D grid:                         0.065     0.065   0.1% |
LCAO initialization:                 2.807     0.011   0.0% |
 LCAO eigensolver:                   0.365     0.001   0.0% |
  Calculate projections:             0.001     0.001   0.0% |
  DenseAtomicCorrection:             0.003     0.003   0.0% |
  Distribute overlap matrix:         0.000     0.000   0.0% |
  Orbital Layouts:                   0.005     0.005   0.0% |
  Potential matrix:                  0.349     0.349   0.3% |
  Sum over cells:                    0.007     0.007   0.0% |
 LCAO to grid:                       2.231     2.231   1.9% ||
 Set positions (LCAO WFS):           0.199     0.023   0.0% |
  Basic WFS set positions:           0.000     0.000   0.0% |
  Basis functions set positions:     0.000     0.000   0.0% |
  P tci:                             0.072     0.072   0.1% |
  ST tci:                            0.090     0.090   0.1% |
  mktci:                             0.013     0.013   0.0% |
PWDescriptor:                        0.041     0.041   0.0% |
SCF-cycle:                         112.660     0.095   0.1% |
 Davidson:                          98.733     7.194   6.2% |-|
  Apply H:                          22.498    22.110  19.0% |-------|
   HMM T:                            0.387     0.387   0.3% |
  Subspace diag:                    24.387     0.034   0.0% |
   calc_h_matrix:                   23.841     0.443   0.4% |
    Apply H:                        23.398    23.199  20.0% |-------|
     HMM T:                          0.200     0.200   0.2% |
   diagonalize:                      0.096     0.096   0.1% |
   rotate_psi:                       0.416     0.416   0.4% |
  calc. matrices:                   43.529     2.774   2.4% ||
   Apply H:                         40.754    40.305  34.7% |-------------|
    HMM T:                           0.449     0.449   0.4% |
  diagonalize:                       0.364     0.364   0.3% |
  rotate_psi:                        0.761     0.761   0.7% |
 Density:                           10.741     0.000   0.0% |
  Atomic density matrices:           0.038     0.038   0.0% |
  Mix:                               0.542     0.542   0.5% |
  Multipole moments:                 0.002     0.002   0.0% |
  Pseudo density:                   10.159    10.108   8.7% |--|
   Symmetrize density:               0.051     0.051   0.0% |
 Hamiltonian:                        2.991     0.043   0.0% |
  Atomic:                            1.514     0.033   0.0% |
   XC Correction:                    1.481     1.481   1.3% ||
  Calculate atomic Hamiltonians:     0.196     0.196   0.2% |
  Communicate:                       0.000     0.000   0.0% |
  Poisson:                           0.015     0.015   0.0% |
  XC 3D grid:                        1.223     1.223   1.1% |
 Orthonormalize:                     0.100     0.002   0.0% |
  calc_s_matrix:                     0.022     0.022   0.0% |
  inverse-cholesky:                  0.002     0.002   0.0% |
  projections:                       0.063     0.063   0.1% |
  rotate_psi_s:                      0.011     0.011   0.0% |
Set symmetry:                        0.002     0.002   0.0% |
Other:                               0.428     0.428   0.4% |
-----------------------------------------------------------
Total:                                       116.107 100.0%

Memory usage: 677.42 MiB
Date: Sat Jul 30 08:35:23 2022
