
  ___ ___ ___ _ _ _  
 |   |   |_  | | | | 
 | | | | | . | | | | 
 |__ |  _|___|_____|  22.1.0
 |___|_|             

User:   gabrielbirnbaum@Gabriels-MacBook-Pro.local
Date:   Tue Jul 26 09:59:12 2022
Arch:   x86_64
Pid:    92584
Python: 3.9.13
gpaw:   /Users/gabrielbirnbaum/PycharmProjects/nanolithia/venv/lib/python3.9/site-packages/gpaw
_gpaw:  /Users/gabrielbirnbaum/PycharmProjects/nanolithia/venv/lib/python3.9/site-packages/
        _gpaw.cpython-39-darwin.so
ase:    /Users/gabrielbirnbaum/PycharmProjects/nanolithia/venv/lib/python3.9/site-packages/ase (version 3.22.1)
numpy:  /Users/gabrielbirnbaum/PycharmProjects/nanolithia/venv/lib/python3.9/site-packages/numpy (version 1.23.0)
scipy:  /Users/gabrielbirnbaum/PycharmProjects/nanolithia/venv/lib/python3.9/site-packages/scipy (version 1.8.1)
libxc:  5.2.3
units:  Angstrom and eV
cores: 1
OpenMP: False
OMP_NUM_THREADS: 1

Input parameters:
  kpts: {gamma: True,
         size: (8, 8, 8)}
  mode: {ecut: 700.0,
         name: pw}
  setups: {O: :p,1.05,0}

System changes: positions, numbers, cell, pbc, initial_charges, initial_magmoms 

Initialize ...

O-setup:
  name: Oxygen
  id: 9b9d51c344dea68c822856295a461509
  Z: 8.0
  valence: 6
  core: 2
  charge: 0.0
  Hubbard U: 1.050000 eV (l=1, scale=False)
  file: /Users/gabrielbirnbaum/dft_learning/DIR/gpaw-setups-0.9.20000/O.LDA.gz
  compensation charges: gauss, rc=0.21, lmax=2
  cutoffs: 1.17(filt), 0.83(core),
  valence states:
                energy  radius
    2s(2.00)   -23.752   0.688
    2p(4.00)    -9.195   0.598
    *s           3.459   0.688
    *p          18.016   0.598
    *d           0.000   0.619

  Using partial waves for O as LCAO basis

Reference energy: -8111.632273

Spin-paired calculation

Convergence criteria:
 Maximum [total energy] change in last 3 cyles: 0.0005 eV / electron
 Maximum integral of absolute [dens]ity change: 0.0001 electrons / valence electron
 Maximum integral of absolute [eigenst]ate change: 4e-08 eV^2 / valence electron
 Maximum number of scf [iter]ations: 333
 (Square brackets indicate name in SCF output, whereas a 'c' in
 the SCF output indicates the quantity has converged.)

Symmetries present (total): 4

  ( 1  0  0)  ( 1  0  0)  (-1  0  0)  (-1  0  0)
  ( 0  1  0)  ( 0 -1  0)  ( 0  1  0)  ( 0 -1  0)
  ( 0  0  1)  ( 0  0  1)  ( 0  0 -1)  ( 0  0 -1)

512 k-points: 8 x 8 x 8 Monkhorst-Pack grid + [1/16,1/16,1/16]
170 k-points in the irreducible part of the Brillouin zone
       k-points in crystal coordinates                weights
   0:     0.00000000    0.00000000    0.00000000          1/512
   1:     0.00000000    0.00000000    0.12500000          2/512
   2:     0.00000000    0.00000000    0.25000000          2/512
   3:     0.00000000    0.00000000    0.37500000          2/512
   4:     0.00000000    0.00000000    0.50000000          1/512
   5:     0.00000000    0.12500000    0.00000000          2/512
   6:     0.00000000    0.12500000    0.12500000          4/512
   7:     0.00000000    0.12500000    0.25000000          4/512
   8:     0.00000000    0.12500000    0.37500000          4/512
   9:     0.00000000    0.12500000    0.50000000          2/512
          ...
 169:     0.50000000    0.50000000    0.50000000          1/512

Wave functions: Plane wave expansion
  Cutoff energy: 700.000 eV
  Number of coefficients (min, max): 3080, 3126
  Pulay-stress correction: 0.000000 eV/Ang^3 (de/decut=0.000000)
  Using Numpy's FFT
  ScaLapack parameters: grid=1x1, blocksize=None
  Wavefunction extrapolation:
    Improved wavefunction reuse through dual PAW basis 

Occupation numbers: Fermi-Dirac: width=0.1000 eV
 

Eigensolver
   Davidson(niter=2) 

Densities:
  Coarse grid: 35*24*27 grid
  Fine grid: 70*48*54 grid
  Total Charge: 0.000000 

Density mixing:
  Method: separate
  Backend: pulay
  Linear mixing parameter: 0.05
  Mixing with 5 old densities
  Damping of long wave oscillations: 50 

Hamiltonian:
  XC and Coulomb potentials evaluated on a 70*48*54 grid
  Using the LDA Exchange-Correlation functional
  External potential:
    NoExternalPotential
 

Memory estimate:
  Process memory now: 1598.15 MiB
  Calculator: 210.84 MiB
    Density: 9.51 MiB
      Arrays: 4.50 MiB
      Localized functions: 3.28 MiB
      Mixer: 1.73 MiB
    Hamiltonian: 3.01 MiB
      Arrays: 2.94 MiB
      XC: 0.00 MiB
      Poisson: 0.00 MiB
      vbar: 0.07 MiB
    Wavefunctions: 198.32 MiB
      Arrays psit_nG: 129.74 MiB
      Eigensolver: 1.04 MiB
      Projections: 2.16 MiB
      Projectors: 56.40 MiB
      PW-descriptor: 8.97 MiB

Total number of cores used: 1

Number of atoms: 4
Number of atomic orbitals: 16
Number of bands in calculation: 16
Number of valence electrons: 24
Bands to converge: occupied

... initialized

Initializing position-dependent things.

Density initialized from atomic densities
Creating initial wave functions:
  16 bands from LCAO basis set

                       
                       
                       
                       
             O         
                       
       O               
          O            
                       
            O          
                       
                       
                       
                       

Positions:
   0 O      1.766737    0.792178   -3.122947    ( 0.0000,  0.0000,  0.0000)
   1 O      0.000000   -0.070820   -0.612542    ( 0.0000,  0.0000,  0.0000)
   2 O      0.000000    3.590005   -3.122947    ( 0.0000,  0.0000,  0.0000)
   3 O      1.766737    2.727007   -0.612542    ( 0.0000,  0.0000,  0.0000)

Unit cell:
           periodic     x           y           z      points  spacing
  1. axis:    yes    0.000000    5.595654    0.000000    35     0.1397
  2. axis:    yes    3.533474    0.000000    0.000000    24     0.1472
  3. axis:    yes    0.000000   -2.076469   -3.735489    27     0.1384

  Lengths:   5.595654   3.533474   4.273828
  Angles:   90.000000 119.068636  90.000000

Effective grid spacing dv^(1/3) = 0.1482

     iter     time        total  log10-change:
                         energy  eigst   dens
iter:   1 09:59:49   -18.613725
iter:   2 10:00:15   -18.624998  -1.18  -1.25
iter:   3 10:00:41   -18.303625  -1.63  -1.28
iter:   4 10:01:08   -18.298802  -1.95  -1.65
iter:   5 10:01:35   -18.293259c -3.54  -1.97
iter:   6 10:02:03   -18.285724  -2.44  -1.96
iter:   7 10:02:31   -18.279430  -3.46  -2.29
iter:   8 10:02:57   -18.279540c -4.38  -2.99
iter:   9 10:03:24   -18.279528c -4.75  -3.08
iter:  10 10:03:50   -18.279539c -5.70  -3.29
iter:  11 10:04:17   -18.279542c -6.42  -3.45
iter:  12 10:04:44   -18.279550c -6.14  -3.48
iter:  13 10:05:11   -18.279533c -6.19  -3.58
iter:  14 10:05:39   -18.279538c -7.50c -3.67
iter:  15 10:06:06   -18.279549c -7.16  -3.74
iter:  16 10:06:32   -18.279533c -7.30  -3.80
iter:  17 10:06:58   -18.279539c -7.26  -3.89
iter:  18 10:07:28   -18.279526c -7.48c -3.78
iter:  19 10:07:58   -18.279523c -7.59c -4.17c

Converged after 19 iterations.

Dipole moment: (-0.000000, -0.000000, -0.000000) |e|*Ang

Energy contributions relative to reference atoms: (reference = -8111.632273)

Kinetic:        +16.134054
Potential:      -21.772443
External:        +0.000000
XC:             -13.299880
Entropy (-ST):   -0.304804
Local:           +0.811147
--------------------------
Free energy:    -18.431926
Extrapolated:   -18.279523

Showing only first 2 kpts
 Kpt  Band  Eigenvalues  Occupancy
  0    10     -2.34944    1.98290
  0    11     -1.69247    0.27972
  0    12     -1.62769    0.15681
  0    13     -1.61214    0.13576

  1    10     -2.33489    1.98025
  1    11     -1.66694    0.22376
  1    12     -1.66575    0.22140
  1    13     -1.60738    0.12986


Fermi level: -1.87411

No gap
Timing:                              incl.     excl.
-----------------------------------------------------------
Hamiltonian:                         0.060     0.001   0.0% |
 Atomic:                             0.028     0.002   0.0% |
  XC Correction:                     0.026     0.026   0.0% |
 Calculate atomic Hamiltonians:      0.006     0.006   0.0% |
 Communicate:                        0.000     0.000   0.0% |
 Initialize Hamiltonian:             0.000     0.000   0.0% |
 Poisson:                            0.001     0.001   0.0% |
 XC 3D grid:                         0.023     0.023   0.0% |
LCAO initialization:                11.727     0.015   0.0% |
 LCAO eigensolver:                   0.404     0.004   0.0% |
  Calculate projections:             0.005     0.005   0.0% |
  DenseAtomicCorrection:             0.018     0.018   0.0% |
  Distribute overlap matrix:         0.003     0.003   0.0% |
  Orbital Layouts:                   0.028     0.028   0.0% |
  Potential matrix:                  0.317     0.317   0.1% |
  Sum over cells:                    0.030     0.030   0.0% |
 LCAO to grid:                      10.263    10.263   1.9% ||
 Set positions (LCAO WFS):           1.045     0.108   0.0% |
  Basic WFS set positions:           0.000     0.000   0.0% |
  Basis functions set positions:     0.000     0.000   0.0% |
  P tci:                             0.464     0.464   0.1% |
  ST tci:                            0.458     0.458   0.1% |
  mktci:                             0.015     0.015   0.0% |
PWDescriptor:                        0.175     0.175   0.0% |
SCF-cycle:                         513.223     0.544   0.1% |
 Davidson:                         460.491    31.175   5.9% |-|
  Apply H:                         104.999   103.537  19.7% |-------|
   HMM T:                            1.462     1.462   0.3% |
  Subspace diag:                   108.518     0.204   0.0% |
   calc_h_matrix:                  105.933     1.677   0.3% |
    Apply H:                       104.257   103.329  19.6% |-------|
     HMM T:                          0.927     0.927   0.2% |
   diagonalize:                      0.576     0.576   0.1% |
   rotate_psi:                       1.805     1.805   0.3% |
  calc. matrices:                  209.763    11.696   2.2% ||
   Apply H:                        198.067   196.089  37.3% |--------------|
    HMM T:                           1.978     1.978   0.4% |
  diagonalize:                       2.735     2.735   0.5% |
  rotate_psi:                        3.301     3.301   0.6% |
 Density:                           50.344     0.000   0.0% |
  Atomic density matrices:           0.191     0.191   0.0% |
  Mix:                               0.441     0.441   0.1% |
  Multipole moments:                 0.002     0.002   0.0% |
  Pseudo density:                   49.710    49.667   9.4% |---|
   Symmetrize density:               0.043     0.043   0.0% |
 Hamiltonian:                        1.361     0.032   0.0% |
  Atomic:                            0.644     0.050   0.0% |
   XC Correction:                    0.594     0.594   0.1% |
  Calculate atomic Hamiltonians:     0.225     0.225   0.0% |
  Communicate:                       0.000     0.000   0.0% |
  Poisson:                           0.014     0.014   0.0% |
  XC 3D grid:                        0.445     0.445   0.1% |
 Orthonormalize:                     0.482     0.011   0.0% |
  calc_s_matrix:                     0.130     0.130   0.0% |
  inverse-cholesky:                  0.012     0.012   0.0% |
  projections:                       0.284     0.284   0.1% |
  rotate_psi_s:                      0.046     0.046   0.0% |
Set symmetry:                        0.012     0.012   0.0% |
Other:                               1.177     1.177   0.2% |
-----------------------------------------------------------
Total:                                       526.375 100.0%

Memory usage: 1.56 GiB
Date: Tue Jul 26 10:07:58 2022
