
  ___ ___ ___ _ _ _  
 |   |   |_  | | | | 
 | | | | | . | | | | 
 |__ |  _|___|_____|  22.1.0
 |___|_|             

User:   gabrielbirnbaum@Gabriels-MacBook-Pro.local
Date:   Tue Jul 26 10:47:11 2022
Arch:   x86_64
Pid:    92584
Python: 3.9.13
gpaw:   /Users/gabrielbirnbaum/PycharmProjects/nanolithia/venv/lib/python3.9/site-packages/gpaw
_gpaw:  /Users/gabrielbirnbaum/PycharmProjects/nanolithia/venv/lib/python3.9/site-packages/
        _gpaw.cpython-39-darwin.so
ase:    /Users/gabrielbirnbaum/PycharmProjects/nanolithia/venv/lib/python3.9/site-packages/ase (version 3.22.1)
numpy:  /Users/gabrielbirnbaum/PycharmProjects/nanolithia/venv/lib/python3.9/site-packages/numpy (version 1.23.0)
scipy:  /Users/gabrielbirnbaum/PycharmProjects/nanolithia/venv/lib/python3.9/site-packages/scipy (version 1.8.1)
libxc:  5.2.3
units:  Angstrom and eV
cores: 1
OpenMP: False
OMP_NUM_THREADS: 1

Input parameters:
  kpts: {gamma: True,
         size: (4, 4, 4)}
  mode: {ecut: 500.0,
         name: pw}
  setups: {O: :p,1.05,0}

System changes: positions, numbers, cell, pbc, initial_charges, initial_magmoms 

Initialize ...

O-setup:
  name: Oxygen
  id: 9b9d51c344dea68c822856295a461509
  Z: 8.0
  valence: 6
  core: 2
  charge: 0.0
  Hubbard U: 1.050000 eV (l=1, scale=False)
  file: /Users/gabrielbirnbaum/dft_learning/DIR/gpaw-setups-0.9.20000/O.LDA.gz
  compensation charges: gauss, rc=0.21, lmax=2
  cutoffs: 1.17(filt), 0.83(core),
  valence states:
                energy  radius
    2s(2.00)   -23.752   0.688
    2p(4.00)    -9.195   0.598
    *s           3.459   0.688
    *p          18.016   0.598
    *d           0.000   0.619

  Using partial waves for O as LCAO basis

Reference energy: -8111.632273

Spin-paired calculation

Convergence criteria:
 Maximum [total energy] change in last 3 cyles: 0.0005 eV / electron
 Maximum integral of absolute [dens]ity change: 0.0001 electrons / valence electron
 Maximum integral of absolute [eigenst]ate change: 4e-08 eV^2 / valence electron
 Maximum number of scf [iter]ations: 333
 (Square brackets indicate name in SCF output, whereas a 'c' in
 the SCF output indicates the quantity has converged.)

Symmetries present (total): 4

  ( 1  0  0)  ( 1  0  0)  (-1  0  0)  (-1  0  0)
  ( 0  1  0)  ( 0 -1  0)  ( 0  1  0)  ( 0 -1  0)
  ( 0  0  1)  ( 0  0  1)  ( 0  0 -1)  ( 0  0 -1)

64 k-points: 4 x 4 x 4 Monkhorst-Pack grid + [1/8,1/8,1/8]
30 k-points in the irreducible part of the Brillouin zone
       k-points in crystal coordinates                weights
   0:     0.00000000    0.00000000    0.00000000          1/64
   1:     0.00000000    0.00000000    0.25000000          2/64
   2:     0.00000000    0.00000000    0.50000000          1/64
   3:     0.00000000    0.25000000    0.00000000          2/64
   4:     0.00000000    0.25000000    0.25000000          4/64
   5:     0.00000000    0.25000000    0.50000000          2/64
   6:     0.00000000    0.50000000    0.00000000          1/64
   7:     0.00000000    0.50000000    0.25000000          2/64
   8:     0.00000000    0.50000000    0.50000000          1/64
   9:     0.25000000    0.00000000   -0.25000000          2/64
          ...
  29:     0.50000000    0.50000000    0.50000000          1/64

Wave functions: Plane wave expansion
  Cutoff energy: 500.000 eV
  Number of coefficients (min, max): 1860, 1910
  Pulay-stress correction: 0.000000 eV/Ang^3 (de/decut=0.000000)
  Using Numpy's FFT
  ScaLapack parameters: grid=1x1, blocksize=None
  Wavefunction extrapolation:
    Improved wavefunction reuse through dual PAW basis 

Occupation numbers: Fermi-Dirac: width=0.1000 eV
 

Eigensolver
   Davidson(niter=2) 

Densities:
  Coarse grid: 30*20*24 grid
  Fine grid: 60*40*48 grid
  Total Charge: 0.000000 

Density mixing:
  Method: separate
  Backend: pulay
  Linear mixing parameter: 0.05
  Mixing with 5 old densities
  Damping of long wave oscillations: 50 

Hamiltonian:
  XC and Coulomb potentials evaluated on a 60*40*48 grid
  Using the LDA Exchange-Correlation functional
  External potential:
    NoExternalPotential
 

Memory estimate:
  Process memory now: 1598.15 MiB
  Calculator: 30.30 MiB
    Density: 5.94 MiB
      Arrays: 2.86 MiB
      Localized functions: 1.98 MiB
      Mixer: 1.10 MiB
    Hamiltonian: 1.91 MiB
      Arrays: 1.87 MiB
      XC: 0.00 MiB
      Poisson: 0.00 MiB
      vbar: 0.04 MiB
    Wavefunctions: 22.46 MiB
      Arrays psit_nG: 13.99 MiB
      Eigensolver: 0.65 MiB
      Projections: 0.38 MiB
      Projectors: 6.01 MiB
      PW-descriptor: 1.42 MiB

Total number of cores used: 1

Number of atoms: 4
Number of atomic orbitals: 16
Number of bands in calculation: 16
Number of valence electrons: 24
Bands to converge: occupied

... initialized

Initializing position-dependent things.

Density initialized from atomic densities
Creating initial wave functions:
  16 bands from LCAO basis set

                       
                       
                       
                       
             O         
                       
       O               
          O            
                       
            O          
                       
                       
                       
                       

Positions:
   0 O      1.766737    0.792178   -3.122947    ( 0.0000,  0.0000,  0.0000)
   1 O      0.000000   -0.070820   -0.612542    ( 0.0000,  0.0000,  0.0000)
   2 O      0.000000    3.590005   -3.122947    ( 0.0000,  0.0000,  0.0000)
   3 O      1.766737    2.727007   -0.612542    ( 0.0000,  0.0000,  0.0000)

Unit cell:
           periodic     x           y           z      points  spacing
  1. axis:    yes    0.000000    5.595654    0.000000    30     0.1630
  2. axis:    yes    3.533474    0.000000    0.000000    20     0.1767
  3. axis:    yes    0.000000   -2.076469   -3.735489    24     0.1556

  Lengths:   5.595654   3.533474   4.273828
  Angles:   90.000000 119.068636  90.000000

Effective grid spacing dv^(1/3) = 0.1725

     iter     time        total  log10-change:
                         energy  eigst   dens
iter:   1 10:47:18   -16.966645
iter:   2 10:47:23   -16.977730  -1.26  -1.25
iter:   3 10:47:29   -16.675035  -1.69  -1.28
iter:   4 10:47:34   -16.674083  -1.99  -1.65
iter:   5 10:47:40   -16.658656  -2.42  -1.98
iter:   6 10:47:45   -16.653893  -3.19  -2.32
iter:   7 10:47:51   -16.653287c -4.60  -2.69
iter:   8 10:47:56   -16.653040c -3.84  -2.82
iter:   9 10:48:01   -16.652820c -4.68  -3.03
iter:  10 10:48:06   -16.652784c -6.22  -3.47
iter:  11 10:48:12   -16.652791c -6.19  -3.97
iter:  12 10:48:18   -16.652796c -6.54  -3.93
iter:  13 10:48:24   -16.652799c -7.99c -4.21c

Converged after 13 iterations.

Dipole moment: (0.000000, -0.000000, -0.000000) |e|*Ang

Energy contributions relative to reference atoms: (reference = -8111.632273)

Kinetic:         +5.596927
Potential:       -9.731898
External:        +0.000000
XC:             -12.567982
Entropy (-ST):   -0.301220
Local:           +0.200763
--------------------------
Free energy:    -16.803409
Extrapolated:   -16.652799

Showing only first 2 kpts
 Kpt  Band  Eigenvalues  Occupancy
  0    10     -2.33704    1.98479
  0    11     -1.65682    0.25325
  0    12     -1.59400    0.14360
  0    13     -1.58379    0.13058

  1    10     -2.26902    1.97018
  1    11     -1.79196    0.71800
  1    12     -1.58296    0.12957
  1    13     -1.51564    0.06825


Fermi level: -1.84993

No gap
Timing:                              incl.     excl.
-----------------------------------------------------------
Hamiltonian:                         0.086     0.007   0.0% |
 Atomic:                             0.047     0.003   0.0% |
  XC Correction:                     0.044     0.044   0.1% |
 Calculate atomic Hamiltonians:      0.007     0.007   0.0% |
 Communicate:                        0.000     0.000   0.0% |
 Initialize Hamiltonian:             0.000     0.000   0.0% |
 Poisson:                            0.000     0.000   0.0% |
 XC 3D grid:                         0.024     0.024   0.0% |
LCAO initialization:                 2.648     0.017   0.0% |
 LCAO eigensolver:                   0.277     0.001   0.0% |
  Calculate projections:             0.001     0.001   0.0% |
  DenseAtomicCorrection:             0.004     0.004   0.0% |
  Distribute overlap matrix:         0.001     0.001   0.0% |
  Orbital Layouts:                   0.006     0.006   0.0% |
  Potential matrix:                  0.256     0.256   0.3% |
  Sum over cells:                    0.008     0.008   0.0% |
 LCAO to grid:                       2.049     2.049   2.8% ||
 Set positions (LCAO WFS):           0.305     0.035   0.0% |
  Basic WFS set positions:           0.001     0.001   0.0% |
  Basis functions set positions:     0.000     0.000   0.0% |
  P tci:                             0.115     0.115   0.2% |
  ST tci:                            0.134     0.134   0.2% |
  mktci:                             0.020     0.020   0.0% |
PWDescriptor:                        0.019     0.019   0.0% |
SCF-cycle:                          70.732     0.099   0.1% |
 Davidson:                          63.049     3.049   4.1% |-|
  Apply H:                          14.581    14.447  19.5% |-------|
   HMM T:                            0.134     0.134   0.2% |
  Subspace diag:                    15.708     0.036   0.0% |
   calc_h_matrix:                   15.365     0.423   0.6% |
    Apply H:                        14.942    14.809  20.0% |-------|
     HMM T:                          0.133     0.133   0.2% |
   diagonalize:                      0.108     0.108   0.1% |
   rotate_psi:                       0.199     0.199   0.3% |
  calc. matrices:                   28.889     3.065   4.1% |-|
   Apply H:                         25.825    25.568  34.6% |-------------|
    HMM T:                           0.256     0.256   0.3% |
  diagonalize:                       0.465     0.465   0.6% |
  rotate_psi:                        0.357     0.357   0.5% |
 Density:                            6.409     0.000   0.0% |
  Atomic density matrices:           0.040     0.040   0.1% |
  Mix:                               0.343     0.343   0.5% |
  Multipole moments:                 0.002     0.002   0.0% |
  Pseudo density:                    6.024     5.999   8.1% |--|
   Symmetrize density:               0.025     0.025   0.0% |
 Hamiltonian:                        1.075     0.035   0.0% |
  Atomic:                            0.632     0.047   0.1% |
   XC Correction:                    0.585     0.585   0.8% |
  Calculate atomic Hamiltonians:     0.117     0.117   0.2% |
  Communicate:                       0.000     0.000   0.0% |
  Poisson:                           0.006     0.006   0.0% |
  XC 3D grid:                        0.285     0.285   0.4% |
 Orthonormalize:                     0.101     0.003   0.0% |
  calc_s_matrix:                     0.052     0.052   0.1% |
  inverse-cholesky:                  0.003     0.003   0.0% |
  projections:                       0.036     0.036   0.0% |
  rotate_psi_s:                      0.007     0.007   0.0% |
Set symmetry:                        0.003     0.003   0.0% |
Other:                               0.445     0.445   0.6% |
-----------------------------------------------------------
Total:                                        73.934 100.0%

Memory usage: 1.56 GiB
Date: Tue Jul 26 10:48:25 2022
