
  ___ ___ ___ _ _ _  
 |   |   |_  | | | | 
 | | | | | . | | | | 
 |__ |  _|___|_____|  22.1.0
 |___|_|             

User:   gabrielbirnbaum@Gabriels-MacBook-Pro.local
Date:   Tue Jul 26 09:51:09 2022
Arch:   x86_64
Pid:    92584
Python: 3.9.13
gpaw:   /Users/gabrielbirnbaum/PycharmProjects/nanolithia/venv/lib/python3.9/site-packages/gpaw
_gpaw:  /Users/gabrielbirnbaum/PycharmProjects/nanolithia/venv/lib/python3.9/site-packages/
        _gpaw.cpython-39-darwin.so
ase:    /Users/gabrielbirnbaum/PycharmProjects/nanolithia/venv/lib/python3.9/site-packages/ase (version 3.22.1)
numpy:  /Users/gabrielbirnbaum/PycharmProjects/nanolithia/venv/lib/python3.9/site-packages/numpy (version 1.23.0)
scipy:  /Users/gabrielbirnbaum/PycharmProjects/nanolithia/venv/lib/python3.9/site-packages/scipy (version 1.8.1)
libxc:  5.2.3
units:  Angstrom and eV
cores: 1
OpenMP: False
OMP_NUM_THREADS: 1

Input parameters:
  kpts: {gamma: True,
         size: (8, 8, 8)}
  mode: {ecut: 650.0,
         name: pw}
  setups: {O: :p,1.05,0}

System changes: positions, numbers, cell, pbc, initial_charges, initial_magmoms 

Initialize ...

O-setup:
  name: Oxygen
  id: 9b9d51c344dea68c822856295a461509
  Z: 8.0
  valence: 6
  core: 2
  charge: 0.0
  Hubbard U: 1.050000 eV (l=1, scale=False)
  file: /Users/gabrielbirnbaum/dft_learning/DIR/gpaw-setups-0.9.20000/O.LDA.gz
  compensation charges: gauss, rc=0.21, lmax=2
  cutoffs: 1.17(filt), 0.83(core),
  valence states:
                energy  radius
    2s(2.00)   -23.752   0.688
    2p(4.00)    -9.195   0.598
    *s           3.459   0.688
    *p          18.016   0.598
    *d           0.000   0.619

  Using partial waves for O as LCAO basis

Reference energy: -8111.632273

Spin-paired calculation

Convergence criteria:
 Maximum [total energy] change in last 3 cyles: 0.0005 eV / electron
 Maximum integral of absolute [dens]ity change: 0.0001 electrons / valence electron
 Maximum integral of absolute [eigenst]ate change: 4e-08 eV^2 / valence electron
 Maximum number of scf [iter]ations: 333
 (Square brackets indicate name in SCF output, whereas a 'c' in
 the SCF output indicates the quantity has converged.)

Symmetries present (total): 4

  ( 1  0  0)  ( 1  0  0)  (-1  0  0)  (-1  0  0)
  ( 0  1  0)  ( 0 -1  0)  ( 0  1  0)  ( 0 -1  0)
  ( 0  0  1)  ( 0  0  1)  ( 0  0 -1)  ( 0  0 -1)

512 k-points: 8 x 8 x 8 Monkhorst-Pack grid + [1/16,1/16,1/16]
170 k-points in the irreducible part of the Brillouin zone
       k-points in crystal coordinates                weights
   0:     0.00000000    0.00000000    0.00000000          1/512
   1:     0.00000000    0.00000000    0.12500000          2/512
   2:     0.00000000    0.00000000    0.25000000          2/512
   3:     0.00000000    0.00000000    0.37500000          2/512
   4:     0.00000000    0.00000000    0.50000000          1/512
   5:     0.00000000    0.12500000    0.00000000          2/512
   6:     0.00000000    0.12500000    0.12500000          4/512
   7:     0.00000000    0.12500000    0.25000000          4/512
   8:     0.00000000    0.12500000    0.37500000          4/512
   9:     0.00000000    0.12500000    0.50000000          2/512
          ...
 169:     0.50000000    0.50000000    0.50000000          1/512

Wave functions: Plane wave expansion
  Cutoff energy: 650.000 eV
  Number of coefficients (min, max): 2746, 2807
  Pulay-stress correction: 0.000000 eV/Ang^3 (de/decut=0.000000)
  Using Numpy's FFT
  ScaLapack parameters: grid=1x1, blocksize=None
  Wavefunction extrapolation:
    Improved wavefunction reuse through dual PAW basis 

Occupation numbers: Fermi-Dirac: width=0.1000 eV
 

Eigensolver
   Davidson(niter=2) 

Densities:
  Coarse grid: 35*21*27 grid
  Fine grid: 70*42*54 grid
  Total Charge: 0.000000 

Density mixing:
  Method: separate
  Backend: pulay
  Linear mixing parameter: 0.05
  Mixing with 5 old densities
  Damping of long wave oscillations: 50 

Hamiltonian:
  XC and Coulomb potentials evaluated on a 70*42*54 grid
  Using the LDA Exchange-Correlation functional
  External potential:
    NoExternalPotential
 

Memory estimate:
  Process memory now: 1598.15 MiB
  Calculator: 189.13 MiB
    Density: 8.39 MiB
      Arrays: 3.94 MiB
      Localized functions: 2.94 MiB
      Mixer: 1.51 MiB
    Hamiltonian: 2.63 MiB
      Arrays: 2.57 MiB
      XC: 0.00 MiB
      Poisson: 0.00 MiB
      vbar: 0.06 MiB
    Wavefunctions: 178.11 MiB
      Arrays psit_nG: 116.50 MiB
      Eigensolver: 0.94 MiB
      Projections: 2.16 MiB
      Projectors: 50.47 MiB
      PW-descriptor: 8.04 MiB

Total number of cores used: 1

Number of atoms: 4
Number of atomic orbitals: 16
Number of bands in calculation: 16
Number of valence electrons: 24
Bands to converge: occupied

... initialized

Initializing position-dependent things.

Density initialized from atomic densities
Creating initial wave functions:
  16 bands from LCAO basis set

                       
                       
                       
                       
             O         
                       
       O               
          O            
                       
            O          
                       
                       
                       
                       

Positions:
   0 O      1.766737    0.792178   -3.122947    ( 0.0000,  0.0000,  0.0000)
   1 O      0.000000   -0.070820   -0.612542    ( 0.0000,  0.0000,  0.0000)
   2 O      0.000000    3.590005   -3.122947    ( 0.0000,  0.0000,  0.0000)
   3 O      1.766737    2.727007   -0.612542    ( 0.0000,  0.0000,  0.0000)

Unit cell:
           periodic     x           y           z      points  spacing
  1. axis:    yes    0.000000    5.595654    0.000000    35     0.1397
  2. axis:    yes    3.533474    0.000000    0.000000    21     0.1683
  3. axis:    yes    0.000000   -2.076469   -3.735489    27     0.1384

  Lengths:   5.595654   3.533474   4.273828
  Angles:   90.000000 119.068636  90.000000

Effective grid spacing dv^(1/3) = 0.1550

     iter     time        total  log10-change:
                         energy  eigst   dens
iter:   1 09:51:46   -18.520012
iter:   2 09:52:10   -18.530502  -1.19  -1.25
iter:   3 09:52:35   -18.218433  -1.64  -1.28
iter:   4 09:53:00   -18.193757  -2.47  -1.59
iter:   5 09:53:27   -18.204634  -2.45  -1.70
iter:   6 09:53:53   -18.189020  -2.55  -1.98
iter:   7 09:54:22   -18.186676  -3.98  -2.48
iter:   8 09:54:49   -18.186736c -4.75  -3.02
iter:   9 09:55:14   -18.186795c -4.87  -3.13
iter:  10 09:55:40   -18.186809c -5.83  -3.37
iter:  11 09:56:06   -18.186816c -6.14  -3.48
iter:  12 09:56:32   -18.186809c -7.37  -3.55
iter:  13 09:57:00   -18.186808c -6.68  -3.71
iter:  14 09:57:27   -18.186821c -7.00  -3.80
iter:  15 09:57:56   -18.186823c -7.89c -3.98
iter:  16 09:58:22   -18.186807c -7.21  -4.04c
iter:  17 09:58:47   -18.186795c -7.33  -4.20c
iter:  18 09:59:11   -18.186795c -8.78c -4.76c

Converged after 18 iterations.

Dipole moment: (-0.000000, -0.000000, -0.000000) |e|*Ang

Energy contributions relative to reference atoms: (reference = -8111.632273)

Kinetic:        +15.259403
Potential:      -20.769108
External:        +0.000000
XC:             -13.248832
Entropy (-ST):   -0.304880
Local:           +0.724181
--------------------------
Free energy:    -18.339235
Extrapolated:   -18.186795

Showing only first 2 kpts
 Kpt  Band  Eigenvalues  Occupancy
  0    10     -2.35006    1.98296
  0    11     -1.69362    0.28186
  0    12     -1.62888    0.15815
  0    13     -1.61231    0.13564

  1    10     -2.33559    1.98033
  1    11     -1.66717    0.22368
  1    12     -1.66549    0.22037
  1    13     -1.60809    0.13040


Fermi level: -1.87438

No gap
Timing:                              incl.     excl.
-----------------------------------------------------------
Hamiltonian:                         0.055     0.005   0.0% |
 Atomic:                             0.025     0.002   0.0% |
  XC Correction:                     0.024     0.024   0.0% |
 Calculate atomic Hamiltonians:      0.006     0.006   0.0% |
 Communicate:                        0.000     0.000   0.0% |
 Initialize Hamiltonian:             0.000     0.000   0.0% |
 Poisson:                            0.000     0.000   0.0% |
 XC 3D grid:                         0.018     0.018   0.0% |
LCAO initialization:                 9.656     0.053   0.0% |
 LCAO eigensolver:                   0.300     0.003   0.0% |
  Calculate projections:             0.004     0.004   0.0% |
  DenseAtomicCorrection:             0.014     0.014   0.0% |
  Distribute overlap matrix:         0.002     0.002   0.0% |
  Orbital Layouts:                   0.022     0.022   0.0% |
  Potential matrix:                  0.231     0.231   0.0% |
  Sum over cells:                    0.024     0.024   0.0% |
 LCAO to grid:                       8.473     8.473   1.8% ||
 Set positions (LCAO WFS):           0.830     0.087   0.0% |
  Basic WFS set positions:           0.000     0.000   0.0% |
  Basis functions set positions:     0.000     0.000   0.0% |
  P tci:                             0.360     0.360   0.1% |
  ST tci:                            0.371     0.371   0.1% |
  mktci:                             0.012     0.012   0.0% |
PWDescriptor:                        0.139     0.139   0.0% |
SCF-cycle:                         471.526     0.547   0.1% |
 Davidson:                         427.081    28.777   6.0% |-|
  Apply H:                          90.375    89.451  18.5% |------|
   HMM T:                            0.924     0.924   0.2% |
  Subspace diag:                   108.989     0.212   0.0% |
   calc_h_matrix:                  106.527     1.553   0.3% |
    Apply H:                       104.974   104.038  21.6% |--------|
     HMM T:                          0.936     0.936   0.2% |
   diagonalize:                      0.594     0.594   0.1% |
   rotate_psi:                       1.655     1.655   0.3% |
  calc. matrices:                  193.020    13.448   2.8% ||
   Apply H:                        179.571   176.666  36.6% |--------------|
    HMM T:                           2.905     2.905   0.6% |
  diagonalize:                       2.994     2.994   0.6% |
  rotate_psi:                        2.926     2.926   0.6% |
 Density:                           42.096     0.000   0.0% |
  Atomic density matrices:           0.192     0.192   0.0% |
  Mix:                               0.370     0.370   0.1% |
  Multipole moments:                 0.002     0.002   0.0% |
  Pseudo density:                   41.533    41.495   8.6% |--|
   Symmetrize density:               0.037     0.037   0.0% |
 Hamiltonian:                        1.229     0.034   0.0% |
  Atomic:                            0.647     0.051   0.0% |
   XC Correction:                    0.596     0.596   0.1% |
  Calculate atomic Hamiltonians:     0.167     0.167   0.0% |
  Communicate:                       0.000     0.000   0.0% |
  Poisson:                           0.009     0.009   0.0% |
  XC 3D grid:                        0.372     0.372   0.1% |
 Orthonormalize:                     0.573     0.012   0.0% |
  calc_s_matrix:                     0.238     0.238   0.0% |
  inverse-cholesky:                  0.013     0.013   0.0% |
  projections:                       0.262     0.262   0.1% |
  rotate_psi_s:                      0.048     0.048   0.0% |
Set symmetry:                        0.010     0.010   0.0% |
Other:                               0.958     0.958   0.2% |
-----------------------------------------------------------
Total:                                       482.344 100.0%

Memory usage: 1.56 GiB
Date: Tue Jul 26 09:59:12 2022
