
  ___ ___ ___ _ _ _  
 |   |   |_  | | | | 
 | | | | | . | | | | 
 |__ |  _|___|_____|  22.1.0
 |___|_|             

User:   gabrielbirnbaum@Gabriels-MacBook-Pro.local
Date:   Tue Jul 26 10:07:58 2022
Arch:   x86_64
Pid:    92584
Python: 3.9.13
gpaw:   /Users/gabrielbirnbaum/PycharmProjects/nanolithia/venv/lib/python3.9/site-packages/gpaw
_gpaw:  /Users/gabrielbirnbaum/PycharmProjects/nanolithia/venv/lib/python3.9/site-packages/
        _gpaw.cpython-39-darwin.so
ase:    /Users/gabrielbirnbaum/PycharmProjects/nanolithia/venv/lib/python3.9/site-packages/ase (version 3.22.1)
numpy:  /Users/gabrielbirnbaum/PycharmProjects/nanolithia/venv/lib/python3.9/site-packages/numpy (version 1.23.0)
scipy:  /Users/gabrielbirnbaum/PycharmProjects/nanolithia/venv/lib/python3.9/site-packages/scipy (version 1.8.1)
libxc:  5.2.3
units:  Angstrom and eV
cores: 1
OpenMP: False
OMP_NUM_THREADS: 1

Input parameters:
  kpts: {gamma: True,
         size: (8, 8, 8)}
  mode: {ecut: 750.0,
         name: pw}
  setups: {O: :p,1.05,0}

System changes: positions, numbers, cell, pbc, initial_charges, initial_magmoms 

Initialize ...

O-setup:
  name: Oxygen
  id: 9b9d51c344dea68c822856295a461509
  Z: 8.0
  valence: 6
  core: 2
  charge: 0.0
  Hubbard U: 1.050000 eV (l=1, scale=False)
  file: /Users/gabrielbirnbaum/dft_learning/DIR/gpaw-setups-0.9.20000/O.LDA.gz
  compensation charges: gauss, rc=0.21, lmax=2
  cutoffs: 1.17(filt), 0.83(core),
  valence states:
                energy  radius
    2s(2.00)   -23.752   0.688
    2p(4.00)    -9.195   0.598
    *s           3.459   0.688
    *p          18.016   0.598
    *d           0.000   0.619

  Using partial waves for O as LCAO basis

Reference energy: -8111.632273

Spin-paired calculation

Convergence criteria:
 Maximum [total energy] change in last 3 cyles: 0.0005 eV / electron
 Maximum integral of absolute [dens]ity change: 0.0001 electrons / valence electron
 Maximum integral of absolute [eigenst]ate change: 4e-08 eV^2 / valence electron
 Maximum number of scf [iter]ations: 333
 (Square brackets indicate name in SCF output, whereas a 'c' in
 the SCF output indicates the quantity has converged.)

Symmetries present (total): 4

  ( 1  0  0)  ( 1  0  0)  (-1  0  0)  (-1  0  0)
  ( 0  1  0)  ( 0 -1  0)  ( 0  1  0)  ( 0 -1  0)
  ( 0  0  1)  ( 0  0  1)  ( 0  0 -1)  ( 0  0 -1)

512 k-points: 8 x 8 x 8 Monkhorst-Pack grid + [1/16,1/16,1/16]
170 k-points in the irreducible part of the Brillouin zone
       k-points in crystal coordinates                weights
   0:     0.00000000    0.00000000    0.00000000          1/512
   1:     0.00000000    0.00000000    0.12500000          2/512
   2:     0.00000000    0.00000000    0.25000000          2/512
   3:     0.00000000    0.00000000    0.37500000          2/512
   4:     0.00000000    0.00000000    0.50000000          1/512
   5:     0.00000000    0.12500000    0.00000000          2/512
   6:     0.00000000    0.12500000    0.12500000          4/512
   7:     0.00000000    0.12500000    0.25000000          4/512
   8:     0.00000000    0.12500000    0.37500000          4/512
   9:     0.00000000    0.12500000    0.50000000          2/512
          ...
 169:     0.50000000    0.50000000    0.50000000          1/512

Wave functions: Plane wave expansion
  Cutoff energy: 750.000 eV
  Number of coefficients (min, max): 3413, 3478
  Pulay-stress correction: 0.000000 eV/Ang^3 (de/decut=0.000000)
  Using Numpy's FFT
  ScaLapack parameters: grid=1x1, blocksize=None
  Wavefunction extrapolation:
    Improved wavefunction reuse through dual PAW basis 

Occupation numbers: Fermi-Dirac: width=0.1000 eV
 

Eigensolver
   Davidson(niter=2) 

Densities:
  Coarse grid: 36*24*27 grid
  Fine grid: 72*48*54 grid
  Total Charge: 0.000000 

Density mixing:
  Method: separate
  Backend: pulay
  Linear mixing parameter: 0.05
  Mixing with 5 old densities
  Damping of long wave oscillations: 50 

Hamiltonian:
  XC and Coulomb potentials evaluated on a 72*48*54 grid
  Using the LDA Exchange-Correlation functional
  External potential:
    NoExternalPotential
 

Memory estimate:
  Process memory now: 1598.15 MiB
  Calculator: 233.26 MiB
    Density: 10.05 MiB
      Arrays: 4.63 MiB
      Localized functions: 3.64 MiB
      Mixer: 1.78 MiB
    Hamiltonian: 3.10 MiB
      Arrays: 3.03 MiB
      XC: 0.00 MiB
      Poisson: 0.00 MiB
      vbar: 0.07 MiB
    Wavefunctions: 220.12 MiB
      Arrays psit_nG: 144.35 MiB
      Eigensolver: 1.15 MiB
      Projections: 2.16 MiB
      Projectors: 62.54 MiB
      PW-descriptor: 9.91 MiB

Total number of cores used: 1

Number of atoms: 4
Number of atomic orbitals: 16
Number of bands in calculation: 16
Number of valence electrons: 24
Bands to converge: occupied

... initialized

Initializing position-dependent things.

Density initialized from atomic densities
Creating initial wave functions:
  16 bands from LCAO basis set

                       
                       
                       
                       
             O         
                       
       O               
          O            
                       
            O          
                       
                       
                       
                       

Positions:
   0 O      1.766737    0.792178   -3.122947    ( 0.0000,  0.0000,  0.0000)
   1 O      0.000000   -0.070820   -0.612542    ( 0.0000,  0.0000,  0.0000)
   2 O      0.000000    3.590005   -3.122947    ( 0.0000,  0.0000,  0.0000)
   3 O      1.766737    2.727007   -0.612542    ( 0.0000,  0.0000,  0.0000)

Unit cell:
           periodic     x           y           z      points  spacing
  1. axis:    yes    0.000000    5.595654    0.000000    36     0.1359
  2. axis:    yes    3.533474    0.000000    0.000000    24     0.1472
  3. axis:    yes    0.000000   -2.076469   -3.735489    27     0.1384

  Lengths:   5.595654   3.533474   4.273828
  Angles:   90.000000 119.068636  90.000000

Effective grid spacing dv^(1/3) = 0.1468

     iter     time        total  log10-change:
                         energy  eigst   dens
iter:   1 10:08:47   -18.651332
iter:   2 10:09:27   -18.663461  -1.17  -1.25
iter:   3 10:10:07   -18.342305  -1.63  -1.28
iter:   4 10:10:43   -18.336385  -1.94  -1.64
iter:   5 10:11:28   -18.326748  -2.35  -1.97
iter:   6 10:12:07   -18.317391  -3.04  -2.20
iter:   7 10:12:40   -18.317373c -4.69  -2.95
iter:   8 10:13:17   -18.317292c -4.91  -3.06
iter:   9 10:13:51   -18.317393c -5.29  -3.40
iter:  10 10:14:29   -18.317285c -5.59  -3.21
iter:  11 10:15:02   -18.317263c -5.93  -3.68
iter:  12 10:15:34   -18.317259c -7.48c -4.21c

Converged after 12 iterations.

Dipole moment: (-0.000000, -0.000000, -0.000000) |e|*Ang

Energy contributions relative to reference atoms: (reference = -8111.632273)

Kinetic:        +16.576034
Potential:      -22.269350
External:        +0.000000
XC:             -13.324882
Entropy (-ST):   -0.304852
Local:           +0.853364
--------------------------
Free energy:    -18.469686
Extrapolated:   -18.317259

Showing only first 2 kpts
 Kpt  Band  Eigenvalues  Occupancy
  0    10     -2.34894    1.98292
  0    11     -1.69167    0.27924
  0    12     -1.62711    0.15683
  0    13     -1.61054    0.13450

  1    10     -2.33424    1.98024
  1    11     -1.66609    0.22325
  1    12     -1.66409    0.21933
  1    13     -1.60701    0.13014


Fermi level: -1.87351

No gap
Timing:                              incl.     excl.
-----------------------------------------------------------
Hamiltonian:                         0.070     0.002   0.0% |
 Atomic:                             0.032     0.003   0.0% |
  XC Correction:                     0.029     0.029   0.0% |
 Calculate atomic Hamiltonians:      0.011     0.011   0.0% |
 Communicate:                        0.000     0.000   0.0% |
 Initialize Hamiltonian:             0.000     0.000   0.0% |
 Poisson:                            0.001     0.001   0.0% |
 XC 3D grid:                         0.024     0.024   0.0% |
LCAO initialization:                16.487     0.020   0.0% |
 LCAO eigensolver:                   0.490     0.006   0.0% |
  Calculate projections:             0.007     0.007   0.0% |
  DenseAtomicCorrection:             0.026     0.026   0.0% |
  Distribute overlap matrix:         0.004     0.004   0.0% |
  Orbital Layouts:                   0.038     0.038   0.0% |
  Potential matrix:                  0.368     0.368   0.1% |
  Sum over cells:                    0.041     0.041   0.0% |
 LCAO to grid:                      14.798    14.798   3.2% ||
 Set positions (LCAO WFS):           1.179     0.127   0.0% |
  Basic WFS set positions:           0.001     0.001   0.0% |
  Basis functions set positions:     0.000     0.000   0.0% |
  P tci:                             0.525     0.525   0.1% |
  ST tci:                            0.510     0.510   0.1% |
  mktci:                             0.017     0.017   0.0% |
PWDescriptor:                        0.200     0.200   0.0% |
SCF-cycle:                         437.400     0.500   0.1% |
 Davidson:                         396.202    27.572   6.1% |-|
  Apply H:                          86.864    85.516  18.8% |-------|
   HMM T:                            1.349     1.349   0.3% |
  Subspace diag:                    93.004     0.178   0.0% |
   calc_h_matrix:                   90.625     1.788   0.4% |
    Apply H:                        88.838    87.867  19.3% |-------|
     HMM T:                          0.971     0.971   0.2% |
   diagonalize:                      0.516     0.516   0.1% |
   rotate_psi:                       1.685     1.685   0.4% |
  calc. matrices:                  183.401    11.058   2.4% ||
   Apply H:                        172.343   170.201  37.4% |--------------|
    HMM T:                           2.142     2.142   0.5% |
  diagonalize:                       2.266     2.266   0.5% |
  rotate_psi:                        3.094     3.094   0.7% |
 Density:                           39.107     0.000   0.0% |
  Atomic density matrices:           0.152     0.152   0.0% |
  Mix:                               0.383     0.383   0.1% |
  Multipole moments:                 0.002     0.002   0.0% |
  Pseudo density:                   38.570    38.536   8.5% |--|
   Symmetrize density:               0.034     0.034   0.0% |
 Hamiltonian:                        1.004     0.022   0.0% |
  Atomic:                            0.489     0.039   0.0% |
   XC Correction:                    0.450     0.450   0.1% |
  Calculate atomic Hamiltonians:     0.149     0.149   0.0% |
  Communicate:                       0.000     0.000   0.0% |
  Poisson:                           0.010     0.010   0.0% |
  XC 3D grid:                        0.335     0.335   0.1% |
 Orthonormalize:                     0.586     0.013   0.0% |
  calc_s_matrix:                     0.151     0.151   0.0% |
  inverse-cholesky:                  0.015     0.015   0.0% |
  projections:                       0.344     0.344   0.1% |
  rotate_psi_s:                      0.063     0.063   0.0% |
Set symmetry:                        0.013     0.013   0.0% |
Other:                               1.394     1.394   0.3% |
-----------------------------------------------------------
Total:                                       455.564 100.0%

Memory usage: 1.56 GiB
Date: Tue Jul 26 10:15:34 2022
