
  ___ ___ ___ _ _ _  
 |   |   |_  | | | | 
 | | | | | . | | | | 
 |__ |  _|___|_____|  22.1.0
 |___|_|             

User:   gabrielbirnbaum@Gabriels-MacBook-Pro.local
Date:   Tue Jul 26 10:48:25 2022
Arch:   x86_64
Pid:    92584
Python: 3.9.13
gpaw:   /Users/gabrielbirnbaum/PycharmProjects/nanolithia/venv/lib/python3.9/site-packages/gpaw
_gpaw:  /Users/gabrielbirnbaum/PycharmProjects/nanolithia/venv/lib/python3.9/site-packages/
        _gpaw.cpython-39-darwin.so
ase:    /Users/gabrielbirnbaum/PycharmProjects/nanolithia/venv/lib/python3.9/site-packages/ase (version 3.22.1)
numpy:  /Users/gabrielbirnbaum/PycharmProjects/nanolithia/venv/lib/python3.9/site-packages/numpy (version 1.23.0)
scipy:  /Users/gabrielbirnbaum/PycharmProjects/nanolithia/venv/lib/python3.9/site-packages/scipy (version 1.8.1)
libxc:  5.2.3
units:  Angstrom and eV
cores: 1
OpenMP: False
OMP_NUM_THREADS: 1

Input parameters:
  kpts: {gamma: True,
         size: (5, 5, 5)}
  mode: {ecut: 500.0,
         name: pw}
  setups: {O: :p,1.05,0}

System changes: positions, numbers, cell, pbc, initial_charges, initial_magmoms 

Initialize ...

O-setup:
  name: Oxygen
  id: 9b9d51c344dea68c822856295a461509
  Z: 8.0
  valence: 6
  core: 2
  charge: 0.0
  Hubbard U: 1.050000 eV (l=1, scale=False)
  file: /Users/gabrielbirnbaum/dft_learning/DIR/gpaw-setups-0.9.20000/O.LDA.gz
  compensation charges: gauss, rc=0.21, lmax=2
  cutoffs: 1.17(filt), 0.83(core),
  valence states:
                energy  radius
    2s(2.00)   -23.752   0.688
    2p(4.00)    -9.195   0.598
    *s           3.459   0.688
    *p          18.016   0.598
    *d           0.000   0.619

  Using partial waves for O as LCAO basis

Reference energy: -8111.632273

Spin-paired calculation

Convergence criteria:
 Maximum [total energy] change in last 3 cyles: 0.0005 eV / electron
 Maximum integral of absolute [dens]ity change: 0.0001 electrons / valence electron
 Maximum integral of absolute [eigenst]ate change: 4e-08 eV^2 / valence electron
 Maximum number of scf [iter]ations: 333
 (Square brackets indicate name in SCF output, whereas a 'c' in
 the SCF output indicates the quantity has converged.)

Symmetries present (total): 4

  ( 1  0  0)  ( 1  0  0)  (-1  0  0)  (-1  0  0)
  ( 0  1  0)  ( 0 -1  0)  ( 0  1  0)  ( 0 -1  0)
  ( 0  0  1)  ( 0  0  1)  ( 0  0 -1)  ( 0  0 -1)

125 k-points: 5 x 5 x 5 Monkhorst-Pack grid
39 k-points in the irreducible part of the Brillouin zone
       k-points in crystal coordinates                weights
   0:     0.00000000    0.00000000    0.00000000          1/125
   1:     0.00000000    0.00000000    0.20000000          2/125
   2:     0.00000000    0.00000000    0.40000000          2/125
   3:     0.00000000    0.20000000    0.00000000          2/125
   4:     0.00000000    0.20000000    0.20000000          4/125
   5:     0.00000000    0.20000000    0.40000000          4/125
   6:     0.00000000    0.40000000    0.00000000          2/125
   7:     0.00000000    0.40000000    0.20000000          4/125
   8:     0.00000000    0.40000000    0.40000000          4/125
   9:     0.20000000    0.00000000   -0.40000000          2/125
          ...
  38:     0.40000000    0.40000000    0.40000000          4/125

Wave functions: Plane wave expansion
  Cutoff energy: 500.000 eV
  Number of coefficients (min, max): 1859, 1898
  Pulay-stress correction: 0.000000 eV/Ang^3 (de/decut=0.000000)
  Using Numpy's FFT
  ScaLapack parameters: grid=1x1, blocksize=None
  Wavefunction extrapolation:
    Improved wavefunction reuse through dual PAW basis 

Occupation numbers: Fermi-Dirac: width=0.1000 eV
 

Eigensolver
   Davidson(niter=2) 

Densities:
  Coarse grid: 30*20*24 grid
  Fine grid: 60*40*48 grid
  Total Charge: 0.000000 

Density mixing:
  Method: separate
  Backend: pulay
  Linear mixing parameter: 0.05
  Mixing with 5 old densities
  Damping of long wave oscillations: 50 

Hamiltonian:
  XC and Coulomb potentials evaluated on a 60*40*48 grid
  Using the LDA Exchange-Correlation functional
  External potential:
    NoExternalPotential
 

Memory estimate:
  Process memory now: 1598.15 MiB
  Calculator: 36.55 MiB
    Density: 5.94 MiB
      Arrays: 2.86 MiB
      Localized functions: 1.98 MiB
      Mixer: 1.10 MiB
    Hamiltonian: 1.91 MiB
      Arrays: 1.87 MiB
      XC: 0.00 MiB
      Poisson: 0.00 MiB
      vbar: 0.04 MiB
    Wavefunctions: 28.71 MiB
      Arrays psit_nG: 18.07 MiB
      Eigensolver: 0.65 MiB
      Projections: 0.50 MiB
      Projectors: 7.82 MiB
      PW-descriptor: 1.68 MiB

Total number of cores used: 1

Number of atoms: 4
Number of atomic orbitals: 16
Number of bands in calculation: 16
Number of valence electrons: 24
Bands to converge: occupied

... initialized

Initializing position-dependent things.

Density initialized from atomic densities
Creating initial wave functions:
  16 bands from LCAO basis set

                       
                       
                       
                       
             O         
                       
       O               
          O            
                       
            O          
                       
                       
                       
                       

Positions:
   0 O      1.766737    0.792178   -3.122947    ( 0.0000,  0.0000,  0.0000)
   1 O      0.000000   -0.070820   -0.612542    ( 0.0000,  0.0000,  0.0000)
   2 O      0.000000    3.590005   -3.122947    ( 0.0000,  0.0000,  0.0000)
   3 O      1.766737    2.727007   -0.612542    ( 0.0000,  0.0000,  0.0000)

Unit cell:
           periodic     x           y           z      points  spacing
  1. axis:    yes    0.000000    5.595654    0.000000    30     0.1630
  2. axis:    yes    3.533474    0.000000    0.000000    20     0.1767
  3. axis:    yes    0.000000   -2.076469   -3.735489    24     0.1556

  Lengths:   5.595654   3.533474   4.273828
  Angles:   90.000000 119.068636  90.000000

Effective grid spacing dv^(1/3) = 0.1725

     iter     time        total  log10-change:
                         energy  eigst   dens
iter:   1 10:48:35   -16.961323
iter:   2 10:48:42   -16.972614  -1.25  -1.25
iter:   3 10:48:49   -16.670218  -1.69  -1.28
iter:   4 10:48:56   -16.668999  -1.99  -1.65
iter:   5 10:49:03   -16.653406  -2.43  -1.98
iter:   6 10:49:08   -16.648838  -3.20  -2.33
iter:   7 10:49:14   -16.648243c -4.58  -2.70
iter:   8 10:49:20   -16.647968c -3.85  -2.82
iter:   9 10:49:26   -16.647763c -4.72  -3.05
iter:  10 10:49:31   -16.647727c -6.25  -3.47
iter:  11 10:49:36   -16.647732c -6.28  -3.98
iter:  12 10:49:42   -16.647738c -6.69  -3.97
iter:  13 10:49:47   -16.647743c -7.86c -4.21c

Converged after 13 iterations.

Dipole moment: (0.000000, -0.000000, -0.000000) |e|*Ang

Energy contributions relative to reference atoms: (reference = -8111.632273)

Kinetic:         +5.552877
Potential:       -9.686052
External:        +0.000000
XC:             -12.563359
Entropy (-ST):   -0.299980
Local:           +0.198780
--------------------------
Free energy:    -16.797733
Extrapolated:   -16.647743

Showing only first 2 kpts
 Kpt  Band  Eigenvalues  Occupancy
  0    10     -2.33768    1.98491
  0    11     -1.65759    0.25536
  0    12     -1.59478    0.14489
  0    13     -1.58451    0.13168

  1    10     -2.29385    1.97671
  1    11     -1.72992    0.46353
  1    12     -1.60817    0.16394
  1    13     -1.54042    0.08676


Fermi level: -1.84976

No gap
Timing:                              incl.     excl.
-----------------------------------------------------------
Hamiltonian:                         0.081     0.006   0.0% |
 Atomic:                             0.043     0.003   0.0% |
  XC Correction:                     0.040     0.040   0.0% |
 Calculate atomic Hamiltonians:      0.012     0.012   0.0% |
 Communicate:                        0.000     0.000   0.0% |
 Initialize Hamiltonian:             0.000     0.000   0.0% |
 Poisson:                            0.000     0.000   0.0% |
 XC 3D grid:                         0.020     0.020   0.0% |
LCAO initialization:                 3.913     0.103   0.1% |
 LCAO eigensolver:                   0.345     0.002   0.0% |
  Calculate projections:             0.002     0.002   0.0% |
  DenseAtomicCorrection:             0.007     0.007   0.0% |
  Distribute overlap matrix:         0.001     0.001   0.0% |
  Orbital Layouts:                   0.010     0.010   0.0% |
  Potential matrix:                  0.308     0.308   0.4% |
  Sum over cells:                    0.016     0.016   0.0% |
 LCAO to grid:                       3.026     3.026   3.7% ||
 Set positions (LCAO WFS):           0.438     0.052   0.1% |
  Basic WFS set positions:           0.001     0.001   0.0% |
  Basis functions set positions:     0.000     0.000   0.0% |
  P tci:                             0.167     0.167   0.2% |
  ST tci:                            0.196     0.196   0.2% |
  mktci:                             0.023     0.023   0.0% |
PWDescriptor:                        0.050     0.050   0.1% |
SCF-cycle:                          77.696     0.121   0.1% |
 Davidson:                          69.269     4.006   4.9% |-|
  Apply H:                          14.994    14.832  18.0% |------|
   HMM T:                            0.163     0.163   0.2% |
  Subspace diag:                    15.923     0.046   0.1% |
   calc_h_matrix:                   15.489     0.328   0.4% |
    Apply H:                        15.160    14.995  18.2% |------|
     HMM T:                          0.165     0.165   0.2% |
   diagonalize:                      0.126     0.126   0.2% |
   rotate_psi:                       0.262     0.262   0.3% |
  calc. matrices:                   33.322     2.341   2.8% ||
   Apply H:                         30.981    30.661  37.3% |--------------|
    HMM T:                           0.320     0.320   0.4% |
  diagonalize:                       0.539     0.539   0.7% |
  rotate_psi:                        0.485     0.485   0.6% |
 Density:                            7.089     0.000   0.0% |
  Atomic density matrices:           0.047     0.047   0.1% |
  Mix:                               0.285     0.285   0.3% |
  Multipole moments:                 0.002     0.002   0.0% |
  Pseudo density:                    6.755     6.729   8.2% |--|
   Symmetrize density:               0.026     0.026   0.0% |
 Hamiltonian:                        1.061     0.018   0.0% |
  Atomic:                            0.622     0.048   0.1% |
   XC Correction:                    0.573     0.573   0.7% |
  Calculate atomic Hamiltonians:     0.139     0.139   0.2% |
  Communicate:                       0.000     0.000   0.0% |
  Poisson:                           0.007     0.007   0.0% |
  XC 3D grid:                        0.275     0.275   0.3% |
 Orthonormalize:                     0.156     0.004   0.0% |
  calc_s_matrix:                     0.077     0.077   0.1% |
  inverse-cholesky:                  0.004     0.004   0.0% |
  projections:                       0.059     0.059   0.1% |
  rotate_psi_s:                      0.011     0.011   0.0% |
Set symmetry:                        0.007     0.007   0.0% |
Other:                               0.468     0.468   0.6% |
-----------------------------------------------------------
Total:                                        82.215 100.0%

Memory usage: 1.56 GiB
Date: Tue Jul 26 10:49:47 2022
